# LAMMPS data file written by OVITO Basic 3.7.11
2 atoms
1 atom types
0.0 2.4919941153 xlo xhi
0.0 2.1581618618 ylo yhi
0.0 20.0 zlo zhi
-1.2459422321 0.0 0.0 xy xz yz

Masses

1 12.0107  # C

Atoms  # atomic

1 1 1.2460153329 0.7193872873 0.0
2 1 3.6550392049e-05 1.4387745745 0.0
