phonopy:
  version: 2.16.3
  frequency_unit_conversion_factor: 521.471000
  symmetry_tolerance: 1.00000e-05
  configuration:
    atom_name: "C"
    dim: "20 20 1"
    primitive_axis: "1.0 0.0 0.0  0.0 1.0 0.0  0.0 0.0 1.0"
    band: "0.0 0.0 0.0    0.5 0.0 0.0   0.333 0.333 0    0.0 0.0 0.0"
    band_labels: "$\\Gamma$ M K $\\Gamma$"
    force_constants: "READ"
    full_force_constants: "TRUE"
    eigenvectors: ".TRUE."
    dos: ".TRUE."
    cell_filename: "POSCAR"
    frequency_conversion_factor: "521.471"

physical_unit:
  atomic_mass: "AMU"
  length: "angstrom"
  force_constants: "eV/angstrom^2"

space_group:
  type: "P2/m"
  number: 10
  Hall_symbol: "-P 2y"

primitive_matrix:
- [  1.000000000000000,  0.000000000000000,  0.000000000000000 ]
- [  0.000000000000000,  1.000000000000000,  0.000000000000000 ]
- [  0.000000000000000,  0.000000000000000,  1.000000000000000 ]

supercell_matrix:
- [  20,   0,   0 ]
- [   0,  20,   0 ]
- [   0,   0,   1 ]

primitive_cell:
  lattice:
  - [     2.492048940300000,     0.000000000000000,     0.000000000000000 ] # a
  - [    -1.245951370200000,     2.158177690400000,     0.000000000000000 ] # b
  - [     0.000000000000000,     0.000000000000000,    20.000000000000000 ] # c
  points:
  - symbol: C  # 1
    coordinates: [  0.666656183829339,  0.333329666213684,  0.000000000000000 ]
    mass: 12.010700
  - symbol: C  # 2
    coordinates: [  0.333318149343437,  0.666662999554010,  0.000000000000000 ]
    mass: 12.010700
  reciprocal_lattice: # without 2pi
  - [     0.401276228499596,     0.231663346791012,     0.000000000000000 ] # a*
  - [     0.000000000000000,     0.463353876952856,     0.000000000000000 ] # b*
  - [     0.000000000000000,     0.000000000000000,     0.050000000000000 ] # c*

unit_cell:
  lattice:
  - [     2.492048940300000,     0.000000000000000,     0.000000000000000 ] # a
  - [    -1.245951370200000,     2.158177690400000,     0.000000000000000 ] # b
  - [     0.000000000000000,     0.000000000000000,    20.000000000000000 ] # c
  points:
  - symbol: C  # 1
    coordinates: [  0.666656183829339,  0.333329666213684,  0.000000000000000 ]
    mass: 12.010700
    reduced_to: 1
  - symbol: C  # 2
    coordinates: [  0.333318149343437,  0.666662999554010,  0.000000000000000 ]
    mass: 12.010700
    reduced_to: 2

supercell:
  lattice:
  - [    49.840978806000003,     0.000000000000000,     0.000000000000000 ] # a
  - [   -24.919027404000001,    43.163553808000003,     0.000000000000000 ] # b
  - [     0.000000000000000,     0.000000000000000,    20.000000000000000 ] # c
  points:
  - symbol: C  # 1
    coordinates: [  0.033332809191467,  0.016666483310684,  0.000000000000000 ]
    mass: 12.010700
    reduced_to: 1
  - symbol: C  # 2
    coordinates: [  0.083332809191467,  0.016666483310684,  0.000000000000000 ]
    mass: 12.010700
    reduced_to: 1
  - symbol: C  # 3
    coordinates: [  0.133332809191467,  0.016666483310684,  0.000000000000000 ]
    mass: 12.010700
    reduced_to: 1
  - symbol: C  # 4
    coordinates: [  0.183332809191467,  0.016666483310684,  0.000000000000000 ]
    mass: 12.010700
    reduced_to: 1
  - symbol: C  # 5
    coordinates: [  0.233332809191467,  0.016666483310684,  0.000000000000000 ]
    mass: 12.010700
    reduced_to: 1
  - symbol: C  # 6
    coordinates: [  0.283332809191467,  0.016666483310684,  0.000000000000000 ]
    mass: 12.010700
    reduced_to: 1
  - symbol: C  # 7
    coordinates: [  0.333332809191467,  0.016666483310684,  0.000000000000000 ]
    mass: 12.010700
    reduced_to: 1
  - symbol: C  # 8
    coordinates: [  0.383332809191467,  0.016666483310684,  0.000000000000000 ]
    mass: 12.010700
    reduced_to: 1
  - symbol: C  # 9
    coordinates: [  0.433332809191467,  0.016666483310684,  0.000000000000000 ]
    mass: 12.010700
    reduced_to: 1
  - symbol: C  # 10
    coordinates: [  0.483332809191467,  0.016666483310684,  0.000000000000000 ]
    mass: 12.010700
    reduced_to: 1
  - symbol: C  # 11
    coordinates: [  0.533332809191467,  0.016666483310684,  0.000000000000000 ]
    mass: 12.010700
    reduced_to: 1
  - symbol: C  # 12
    coordinates: [  0.583332809191467,  0.016666483310684,  0.000000000000000 ]
    mass: 12.010700
    reduced_to: 1
  - symbol: C  # 13
    coordinates: [  0.633332809191467,  0.016666483310684,  0.000000000000000 ]
    mass: 12.010700
    reduced_to: 1
  - symbol: C  # 14
    coordinates: [  0.683332809191467,  0.016666483310684,  0.000000000000000 ]
    mass: 12.010700
    reduced_to: 1
  - symbol: C  # 15
    coordinates: [  0.733332809191467,  0.016666483310684,  0.000000000000000 ]
    mass: 12.010700
    reduced_to: 1
  - symbol: C  # 16
    coordinates: [  0.783332809191467,  0.016666483310684,  0.000000000000000 ]
    mass: 12.010700
    reduced_to: 1
  - symbol: C  # 17
    coordinates: [  0.833332809191467,  0.016666483310684,  0.000000000000000 ]
    mass: 12.010700
    reduced_to: 1
  - symbol: C  # 18
    coordinates: [  0.883332809191467,  0.016666483310684,  0.000000000000000 ]
    mass: 12.010700
    reduced_to: 1
  - symbol: C  # 19
    coordinates: [  0.933332809191467,  0.016666483310684,  0.000000000000000 ]
    mass: 12.010700
    reduced_to: 1
  - symbol: C  # 20
    coordinates: [  0.983332809191467,  0.016666483310684,  0.000000000000000 ]
    mass: 12.010700
    reduced_to: 1
  - symbol: C  # 21
    coordinates: [  0.033332809191467,  0.066666483310684,  0.000000000000000 ]
    mass: 12.010700
    reduced_to: 1
  - symbol: C  # 22
    coordinates: [  0.083332809191467,  0.066666483310684,  0.000000000000000 ]
    mass: 12.010700
    reduced_to: 1
  - symbol: C  # 23
    coordinates: [  0.133332809191467,  0.066666483310684,  0.000000000000000 ]
    mass: 12.010700
    reduced_to: 1
  - symbol: C  # 24
    coordinates: [  0.183332809191467,  0.066666483310684,  0.000000000000000 ]
    mass: 12.010700
    reduced_to: 1
  - symbol: C  # 25
    coordinates: [  0.233332809191467,  0.066666483310684,  0.000000000000000 ]
    mass: 12.010700
    reduced_to: 1
  - symbol: C  # 26
    coordinates: [  0.283332809191467,  0.066666483310684,  0.000000000000000 ]
    mass: 12.010700
    reduced_to: 1
  - symbol: C  # 27
    coordinates: [  0.333332809191467,  0.066666483310684,  0.000000000000000 ]
    mass: 12.010700
    reduced_to: 1
  - symbol: C  # 28
    coordinates: [  0.383332809191467,  0.066666483310684,  0.000000000000000 ]
    mass: 12.010700
    reduced_to: 1
  - symbol: C  # 29
    coordinates: [  0.433332809191467,  0.066666483310684,  0.000000000000000 ]
    mass: 12.010700
    reduced_to: 1
  - symbol: C  # 30
    coordinates: [  0.483332809191467,  0.066666483310684,  0.000000000000000 ]
    mass: 12.010700
    reduced_to: 1
  - symbol: C  # 31
    coordinates: [  0.533332809191467,  0.066666483310684,  0.000000000000000 ]
    mass: 12.010700
    reduced_to: 1
  - symbol: C  # 32
    coordinates: [  0.583332809191467,  0.066666483310684,  0.000000000000000 ]
    mass: 12.010700
    reduced_to: 1
  - symbol: C  # 33
    coordinates: [  0.633332809191467,  0.066666483310684,  0.000000000000000 ]
    mass: 12.010700
    reduced_to: 1
  - symbol: C  # 34
    coordinates: [  0.683332809191467,  0.066666483310684,  0.000000000000000 ]
    mass: 12.010700
    reduced_to: 1
  - symbol: C  # 35
    coordinates: [  0.733332809191467,  0.066666483310684,  0.000000000000000 ]
    mass: 12.010700
    reduced_to: 1
  - symbol: C  # 36
    coordinates: [  0.783332809191467,  0.066666483310684,  0.000000000000000 ]
    mass: 12.010700
    reduced_to: 1
  - symbol: C  # 37
    coordinates: [  0.833332809191467,  0.066666483310684,  0.000000000000000 ]
    mass: 12.010700
    reduced_to: 1
  - symbol: C  # 38
    coordinates: [  0.883332809191467,  0.066666483310684,  0.000000000000000 ]
    mass: 12.010700
    reduced_to: 1
  - symbol: C  # 39
    coordinates: [  0.933332809191467,  0.066666483310684,  0.000000000000000 ]
    mass: 12.010700
    reduced_to: 1
  - symbol: C  # 40
    coordinates: [  0.983332809191467,  0.066666483310684,  0.000000000000000 ]
    mass: 12.010700
    reduced_to: 1
  - symbol: C  # 41
    coordinates: [  0.033332809191467,  0.116666483310684,  0.000000000000000 ]
    mass: 12.010700
    reduced_to: 1
  - symbol: C  # 42
    coordinates: [  0.083332809191467,  0.116666483310684,  0.000000000000000 ]
    mass: 12.010700
    reduced_to: 1
  - symbol: C  # 43
    coordinates: [  0.133332809191467,  0.116666483310684,  0.000000000000000 ]
    mass: 12.010700
    reduced_to: 1
  - symbol: C  # 44
    coordinates: [  0.183332809191467,  0.116666483310684,  0.000000000000000 ]
    mass: 12.010700
    reduced_to: 1
  - symbol: C  # 45
    coordinates: [  0.233332809191467,  0.116666483310684,  0.000000000000000 ]
    mass: 12.010700
    reduced_to: 1
  - symbol: C  # 46
    coordinates: [  0.283332809191467,  0.116666483310684,  0.000000000000000 ]
    mass: 12.010700
    reduced_to: 1
  - symbol: C  # 47
    coordinates: [  0.333332809191467,  0.116666483310684,  0.000000000000000 ]
    mass: 12.010700
    reduced_to: 1
  - symbol: C  # 48
    coordinates: [  0.383332809191467,  0.116666483310684,  0.000000000000000 ]
    mass: 12.010700
    reduced_to: 1
  - symbol: C  # 49
    coordinates: [  0.433332809191467,  0.116666483310684,  0.000000000000000 ]
    mass: 12.010700
    reduced_to: 1
  - symbol: C  # 50
    coordinates: [  0.483332809191467,  0.116666483310684,  0.000000000000000 ]
    mass: 12.010700
    reduced_to: 1
  - symbol: C  # 51
    coordinates: [  0.533332809191467,  0.116666483310684,  0.000000000000000 ]
    mass: 12.010700
    reduced_to: 1
  - symbol: C  # 52
    coordinates: [  0.583332809191467,  0.116666483310684,  0.000000000000000 ]
    mass: 12.010700
    reduced_to: 1
  - symbol: C  # 53
    coordinates: [  0.633332809191467,  0.116666483310684,  0.000000000000000 ]
    mass: 12.010700
    reduced_to: 1
  - symbol: C  # 54
    coordinates: [  0.683332809191467,  0.116666483310684,  0.000000000000000 ]
    mass: 12.010700
    reduced_to: 1
  - symbol: C  # 55
    coordinates: [  0.733332809191467,  0.116666483310684,  0.000000000000000 ]
    mass: 12.010700
    reduced_to: 1
  - symbol: C  # 56
    coordinates: [  0.783332809191467,  0.116666483310684,  0.000000000000000 ]
    mass: 12.010700
    reduced_to: 1
  - symbol: C  # 57
    coordinates: [  0.833332809191467,  0.116666483310684,  0.000000000000000 ]
    mass: 12.010700
    reduced_to: 1
  - symbol: C  # 58
    coordinates: [  0.883332809191467,  0.116666483310684,  0.000000000000000 ]
    mass: 12.010700
    reduced_to: 1
  - symbol: C  # 59
    coordinates: [  0.933332809191467,  0.116666483310684,  0.000000000000000 ]
    mass: 12.010700
    reduced_to: 1
  - symbol: C  # 60
    coordinates: [  0.983332809191467,  0.116666483310684,  0.000000000000000 ]
    mass: 12.010700
    reduced_to: 1
  - symbol: C  # 61
    coordinates: [  0.033332809191467,  0.166666483310684,  0.000000000000000 ]
    mass: 12.010700
    reduced_to: 1
  - symbol: C  # 62
    coordinates: [  0.083332809191467,  0.166666483310684,  0.000000000000000 ]
    mass: 12.010700
    reduced_to: 1
  - symbol: C  # 63
    coordinates: [  0.133332809191467,  0.166666483310684,  0.000000000000000 ]
    mass: 12.010700
    reduced_to: 1
  - symbol: C  # 64
    coordinates: [  0.183332809191467,  0.166666483310684,  0.000000000000000 ]
    mass: 12.010700
    reduced_to: 1
  - symbol: C  # 65
    coordinates: [  0.233332809191467,  0.166666483310684,  0.000000000000000 ]
    mass: 12.010700
    reduced_to: 1
  - symbol: C  # 66
    coordinates: [  0.283332809191467,  0.166666483310684,  0.000000000000000 ]
    mass: 12.010700
    reduced_to: 1
  - symbol: C  # 67
    coordinates: [  0.333332809191467,  0.166666483310684,  0.000000000000000 ]
    mass: 12.010700
    reduced_to: 1
  - symbol: C  # 68
    coordinates: [  0.383332809191467,  0.166666483310684,  0.000000000000000 ]
    mass: 12.010700
    reduced_to: 1
  - symbol: C  # 69
    coordinates: [  0.433332809191467,  0.166666483310684,  0.000000000000000 ]
    mass: 12.010700
    reduced_to: 1
  - symbol: C  # 70
    coordinates: [  0.483332809191467,  0.166666483310684,  0.000000000000000 ]
    mass: 12.010700
    reduced_to: 1
  - symbol: C  # 71
    coordinates: [  0.533332809191467,  0.166666483310684,  0.000000000000000 ]
    mass: 12.010700
    reduced_to: 1
  - symbol: C  # 72
    coordinates: [  0.583332809191467,  0.166666483310684,  0.000000000000000 ]
    mass: 12.010700
    reduced_to: 1
  - symbol: C  # 73
    coordinates: [  0.633332809191467,  0.166666483310684,  0.000000000000000 ]
    mass: 12.010700
    reduced_to: 1
  - symbol: C  # 74
    coordinates: [  0.683332809191467,  0.166666483310684,  0.000000000000000 ]
    mass: 12.010700
    reduced_to: 1
  - symbol: C  # 75
    coordinates: [  0.733332809191467,  0.166666483310684,  0.000000000000000 ]
    mass: 12.010700
    reduced_to: 1
  - symbol: C  # 76
    coordinates: [  0.783332809191467,  0.166666483310684,  0.000000000000000 ]
    mass: 12.010700
    reduced_to: 1
  - symbol: C  # 77
    coordinates: [  0.833332809191467,  0.166666483310684,  0.000000000000000 ]
    mass: 12.010700
    reduced_to: 1
  - symbol: C  # 78
    coordinates: [  0.883332809191467,  0.166666483310684,  0.000000000000000 ]
    mass: 12.010700
    reduced_to: 1
  - symbol: C  # 79
    coordinates: [  0.933332809191467,  0.166666483310684,  0.000000000000000 ]
    mass: 12.010700
    reduced_to: 1
  - symbol: C  # 80
    coordinates: [  0.983332809191467,  0.166666483310684,  0.000000000000000 ]
    mass: 12.010700
    reduced_to: 1
  - symbol: C  # 81
    coordinates: [  0.033332809191467,  0.216666483310684,  0.000000000000000 ]
    mass: 12.010700
    reduced_to: 1
  - symbol: C  # 82
    coordinates: [  0.083332809191467,  0.216666483310684,  0.000000000000000 ]
    mass: 12.010700
    reduced_to: 1
  - symbol: C  # 83
    coordinates: [  0.133332809191467,  0.216666483310684,  0.000000000000000 ]
    mass: 12.010700
    reduced_to: 1
  - symbol: C  # 84
    coordinates: [  0.183332809191467,  0.216666483310684,  0.000000000000000 ]
    mass: 12.010700
    reduced_to: 1
  - symbol: C  # 85
    coordinates: [  0.233332809191467,  0.216666483310684,  0.000000000000000 ]
    mass: 12.010700
    reduced_to: 1
  - symbol: C  # 86
    coordinates: [  0.283332809191467,  0.216666483310684,  0.000000000000000 ]
    mass: 12.010700
    reduced_to: 1
  - symbol: C  # 87
    coordinates: [  0.333332809191467,  0.216666483310684,  0.000000000000000 ]
    mass: 12.010700
    reduced_to: 1
  - symbol: C  # 88
    coordinates: [  0.383332809191467,  0.216666483310684,  0.000000000000000 ]
    mass: 12.010700
    reduced_to: 1
  - symbol: C  # 89
    coordinates: [  0.433332809191467,  0.216666483310684,  0.000000000000000 ]
    mass: 12.010700
    reduced_to: 1
  - symbol: C  # 90
    coordinates: [  0.483332809191467,  0.216666483310684,  0.000000000000000 ]
    mass: 12.010700
    reduced_to: 1
  - symbol: C  # 91
    coordinates: [  0.533332809191467,  0.216666483310684,  0.000000000000000 ]
    mass: 12.010700
    reduced_to: 1
  - symbol: C  # 92
    coordinates: [  0.583332809191467,  0.216666483310684,  0.000000000000000 ]
    mass: 12.010700
    reduced_to: 1
  - symbol: C  # 93
    coordinates: [  0.633332809191467,  0.216666483310684,  0.000000000000000 ]
    mass: 12.010700
    reduced_to: 1
  - symbol: C  # 94
    coordinates: [  0.683332809191467,  0.216666483310684,  0.000000000000000 ]
    mass: 12.010700
    reduced_to: 1
  - symbol: C  # 95
    coordinates: [  0.733332809191467,  0.216666483310684,  0.000000000000000 ]
    mass: 12.010700
    reduced_to: 1
  - symbol: C  # 96
    coordinates: [  0.783332809191467,  0.216666483310684,  0.000000000000000 ]
    mass: 12.010700
    reduced_to: 1
  - symbol: C  # 97
    coordinates: [  0.833332809191467,  0.216666483310684,  0.000000000000000 ]
    mass: 12.010700
    reduced_to: 1
  - symbol: C  # 98
    coordinates: [  0.883332809191467,  0.216666483310684,  0.000000000000000 ]
    mass: 12.010700
    reduced_to: 1
  - symbol: C  # 99
    coordinates: [  0.933332809191467,  0.216666483310684,  0.000000000000000 ]
    mass: 12.010700
    reduced_to: 1
  - symbol: C  # 100
    coordinates: [  0.983332809191467,  0.216666483310684,  0.000000000000000 ]
    mass: 12.010700
    reduced_to: 1
  - symbol: C  # 101
    coordinates: [  0.033332809191467,  0.266666483310684,  0.000000000000000 ]
    mass: 12.010700
    reduced_to: 1
  - symbol: C  # 102
    coordinates: [  0.083332809191467,  0.266666483310684,  0.000000000000000 ]
    mass: 12.010700
    reduced_to: 1
  - symbol: C  # 103
    coordinates: [  0.133332809191467,  0.266666483310684,  0.000000000000000 ]
    mass: 12.010700
    reduced_to: 1
  - symbol: C  # 104
    coordinates: [  0.183332809191467,  0.266666483310684,  0.000000000000000 ]
    mass: 12.010700
    reduced_to: 1
  - symbol: C  # 105
    coordinates: [  0.233332809191467,  0.266666483310684,  0.000000000000000 ]
    mass: 12.010700
    reduced_to: 1
  - symbol: C  # 106
    coordinates: [  0.283332809191467,  0.266666483310684,  0.000000000000000 ]
    mass: 12.010700
    reduced_to: 1
  - symbol: C  # 107
    coordinates: [  0.333332809191467,  0.266666483310684,  0.000000000000000 ]
    mass: 12.010700
    reduced_to: 1
  - symbol: C  # 108
    coordinates: [  0.383332809191467,  0.266666483310684,  0.000000000000000 ]
    mass: 12.010700
    reduced_to: 1
  - symbol: C  # 109
    coordinates: [  0.433332809191467,  0.266666483310684,  0.000000000000000 ]
    mass: 12.010700
    reduced_to: 1
  - symbol: C  # 110
    coordinates: [  0.483332809191467,  0.266666483310684,  0.000000000000000 ]
    mass: 12.010700
    reduced_to: 1
  - symbol: C  # 111
    coordinates: [  0.533332809191467,  0.266666483310684,  0.000000000000000 ]
    mass: 12.010700
    reduced_to: 1
  - symbol: C  # 112
    coordinates: [  0.583332809191467,  0.266666483310684,  0.000000000000000 ]
    mass: 12.010700
    reduced_to: 1
  - symbol: C  # 113
    coordinates: [  0.633332809191467,  0.266666483310684,  0.000000000000000 ]
    mass: 12.010700
    reduced_to: 1
  - symbol: C  # 114
    coordinates: [  0.683332809191467,  0.266666483310684,  0.000000000000000 ]
    mass: 12.010700
    reduced_to: 1
  - symbol: C  # 115
    coordinates: [  0.733332809191467,  0.266666483310684,  0.000000000000000 ]
    mass: 12.010700
    reduced_to: 1
  - symbol: C  # 116
    coordinates: [  0.783332809191467,  0.266666483310684,  0.000000000000000 ]
    mass: 12.010700
    reduced_to: 1
  - symbol: C  # 117
    coordinates: [  0.833332809191467,  0.266666483310684,  0.000000000000000 ]
    mass: 12.010700
    reduced_to: 1
  - symbol: C  # 118
    coordinates: [  0.883332809191467,  0.266666483310684,  0.000000000000000 ]
    mass: 12.010700
    reduced_to: 1
  - symbol: C  # 119
    coordinates: [  0.933332809191467,  0.266666483310684,  0.000000000000000 ]
    mass: 12.010700
    reduced_to: 1
  - symbol: C  # 120
    coordinates: [  0.983332809191467,  0.266666483310684,  0.000000000000000 ]
    mass: 12.010700
    reduced_to: 1
  - symbol: C  # 121
    coordinates: [  0.033332809191467,  0.316666483310684,  0.000000000000000 ]
    mass: 12.010700
    reduced_to: 1
  - symbol: C  # 122
    coordinates: [  0.083332809191467,  0.316666483310684,  0.000000000000000 ]
    mass: 12.010700
    reduced_to: 1
  - symbol: C  # 123
    coordinates: [  0.133332809191467,  0.316666483310684,  0.000000000000000 ]
    mass: 12.010700
    reduced_to: 1
  - symbol: C  # 124
    coordinates: [  0.183332809191467,  0.316666483310684,  0.000000000000000 ]
    mass: 12.010700
    reduced_to: 1
  - symbol: C  # 125
    coordinates: [  0.233332809191467,  0.316666483310684,  0.000000000000000 ]
    mass: 12.010700
    reduced_to: 1
  - symbol: C  # 126
    coordinates: [  0.283332809191467,  0.316666483310684,  0.000000000000000 ]
    mass: 12.010700
    reduced_to: 1
  - symbol: C  # 127
    coordinates: [  0.333332809191467,  0.316666483310684,  0.000000000000000 ]
    mass: 12.010700
    reduced_to: 1
  - symbol: C  # 128
    coordinates: [  0.383332809191467,  0.316666483310684,  0.000000000000000 ]
    mass: 12.010700
    reduced_to: 1
  - symbol: C  # 129
    coordinates: [  0.433332809191467,  0.316666483310684,  0.000000000000000 ]
    mass: 12.010700
    reduced_to: 1
  - symbol: C  # 130
    coordinates: [  0.483332809191467,  0.316666483310684,  0.000000000000000 ]
    mass: 12.010700
    reduced_to: 1
  - symbol: C  # 131
    coordinates: [  0.533332809191467,  0.316666483310684,  0.000000000000000 ]
    mass: 12.010700
    reduced_to: 1
  - symbol: C  # 132
    coordinates: [  0.583332809191467,  0.316666483310684,  0.000000000000000 ]
    mass: 12.010700
    reduced_to: 1
  - symbol: C  # 133
    coordinates: [  0.633332809191467,  0.316666483310684,  0.000000000000000 ]
    mass: 12.010700
    reduced_to: 1
  - symbol: C  # 134
    coordinates: [  0.683332809191467,  0.316666483310684,  0.000000000000000 ]
    mass: 12.010700
    reduced_to: 1
  - symbol: C  # 135
    coordinates: [  0.733332809191467,  0.316666483310684,  0.000000000000000 ]
    mass: 12.010700
    reduced_to: 1
  - symbol: C  # 136
    coordinates: [  0.783332809191467,  0.316666483310684,  0.000000000000000 ]
    mass: 12.010700
    reduced_to: 1
  - symbol: C  # 137
    coordinates: [  0.833332809191467,  0.316666483310684,  0.000000000000000 ]
    mass: 12.010700
    reduced_to: 1
  - symbol: C  # 138
    coordinates: [  0.883332809191467,  0.316666483310684,  0.000000000000000 ]
    mass: 12.010700
    reduced_to: 1
  - symbol: C  # 139
    coordinates: [  0.933332809191467,  0.316666483310684,  0.000000000000000 ]
    mass: 12.010700
    reduced_to: 1
  - symbol: C  # 140
    coordinates: [  0.983332809191467,  0.316666483310684,  0.000000000000000 ]
    mass: 12.010700
    reduced_to: 1
  - symbol: C  # 141
    coordinates: [  0.033332809191467,  0.366666483310684,  0.000000000000000 ]
    mass: 12.010700
    reduced_to: 1
  - symbol: C  # 142
    coordinates: [  0.083332809191467,  0.366666483310684,  0.000000000000000 ]
    mass: 12.010700
    reduced_to: 1
  - symbol: C  # 143
    coordinates: [  0.133332809191467,  0.366666483310684,  0.000000000000000 ]
    mass: 12.010700
    reduced_to: 1
  - symbol: C  # 144
    coordinates: [  0.183332809191467,  0.366666483310684,  0.000000000000000 ]
    mass: 12.010700
    reduced_to: 1
  - symbol: C  # 145
    coordinates: [  0.233332809191467,  0.366666483310684,  0.000000000000000 ]
    mass: 12.010700
    reduced_to: 1
  - symbol: C  # 146
    coordinates: [  0.283332809191467,  0.366666483310684,  0.000000000000000 ]
    mass: 12.010700
    reduced_to: 1
  - symbol: C  # 147
    coordinates: [  0.333332809191467,  0.366666483310684,  0.000000000000000 ]
    mass: 12.010700
    reduced_to: 1
  - symbol: C  # 148
    coordinates: [  0.383332809191467,  0.366666483310684,  0.000000000000000 ]
    mass: 12.010700
    reduced_to: 1
  - symbol: C  # 149
    coordinates: [  0.433332809191467,  0.366666483310684,  0.000000000000000 ]
    mass: 12.010700
    reduced_to: 1
  - symbol: C  # 150
    coordinates: [  0.483332809191467,  0.366666483310684,  0.000000000000000 ]
    mass: 12.010700
    reduced_to: 1
  - symbol: C  # 151
    coordinates: [  0.533332809191467,  0.366666483310684,  0.000000000000000 ]
    mass: 12.010700
    reduced_to: 1
  - symbol: C  # 152
    coordinates: [  0.583332809191467,  0.366666483310684,  0.000000000000000 ]
    mass: 12.010700
    reduced_to: 1
  - symbol: C  # 153
    coordinates: [  0.633332809191467,  0.366666483310684,  0.000000000000000 ]
    mass: 12.010700
    reduced_to: 1
  - symbol: C  # 154
    coordinates: [  0.683332809191467,  0.366666483310684,  0.000000000000000 ]
    mass: 12.010700
    reduced_to: 1
  - symbol: C  # 155
    coordinates: [  0.733332809191467,  0.366666483310684,  0.000000000000000 ]
    mass: 12.010700
    reduced_to: 1
  - symbol: C  # 156
    coordinates: [  0.783332809191467,  0.366666483310684,  0.000000000000000 ]
    mass: 12.010700
    reduced_to: 1
  - symbol: C  # 157
    coordinates: [  0.833332809191467,  0.366666483310684,  0.000000000000000 ]
    mass: 12.010700
    reduced_to: 1
  - symbol: C  # 158
    coordinates: [  0.883332809191467,  0.366666483310684,  0.000000000000000 ]
    mass: 12.010700
    reduced_to: 1
  - symbol: C  # 159
    coordinates: [  0.933332809191467,  0.366666483310684,  0.000000000000000 ]
    mass: 12.010700
    reduced_to: 1
  - symbol: C  # 160
    coordinates: [  0.983332809191467,  0.366666483310684,  0.000000000000000 ]
    mass: 12.010700
    reduced_to: 1
  - symbol: C  # 161
    coordinates: [  0.033332809191467,  0.416666483310684,  0.000000000000000 ]
    mass: 12.010700
    reduced_to: 1
  - symbol: C  # 162
    coordinates: [  0.083332809191467,  0.416666483310684,  0.000000000000000 ]
    mass: 12.010700
    reduced_to: 1
  - symbol: C  # 163
    coordinates: [  0.133332809191467,  0.416666483310684,  0.000000000000000 ]
    mass: 12.010700
    reduced_to: 1
  - symbol: C  # 164
    coordinates: [  0.183332809191467,  0.416666483310684,  0.000000000000000 ]
    mass: 12.010700
    reduced_to: 1
  - symbol: C  # 165
    coordinates: [  0.233332809191467,  0.416666483310684,  0.000000000000000 ]
    mass: 12.010700
    reduced_to: 1
  - symbol: C  # 166
    coordinates: [  0.283332809191467,  0.416666483310684,  0.000000000000000 ]
    mass: 12.010700
    reduced_to: 1
  - symbol: C  # 167
    coordinates: [  0.333332809191467,  0.416666483310684,  0.000000000000000 ]
    mass: 12.010700
    reduced_to: 1
  - symbol: C  # 168
    coordinates: [  0.383332809191467,  0.416666483310684,  0.000000000000000 ]
    mass: 12.010700
    reduced_to: 1
  - symbol: C  # 169
    coordinates: [  0.433332809191467,  0.416666483310684,  0.000000000000000 ]
    mass: 12.010700
    reduced_to: 1
  - symbol: C  # 170
    coordinates: [  0.483332809191467,  0.416666483310684,  0.000000000000000 ]
    mass: 12.010700
    reduced_to: 1
  - symbol: C  # 171
    coordinates: [  0.533332809191467,  0.416666483310684,  0.000000000000000 ]
    mass: 12.010700
    reduced_to: 1
  - symbol: C  # 172
    coordinates: [  0.583332809191467,  0.416666483310684,  0.000000000000000 ]
    mass: 12.010700
    reduced_to: 1
  - symbol: C  # 173
    coordinates: [  0.633332809191467,  0.416666483310684,  0.000000000000000 ]
    mass: 12.010700
    reduced_to: 1
  - symbol: C  # 174
    coordinates: [  0.683332809191467,  0.416666483310684,  0.000000000000000 ]
    mass: 12.010700
    reduced_to: 1
  - symbol: C  # 175
    coordinates: [  0.733332809191467,  0.416666483310684,  0.000000000000000 ]
    mass: 12.010700
    reduced_to: 1
  - symbol: C  # 176
    coordinates: [  0.783332809191467,  0.416666483310684,  0.000000000000000 ]
    mass: 12.010700
    reduced_to: 1
  - symbol: C  # 177
    coordinates: [  0.833332809191467,  0.416666483310684,  0.000000000000000 ]
    mass: 12.010700
    reduced_to: 1
  - symbol: C  # 178
    coordinates: [  0.883332809191467,  0.416666483310684,  0.000000000000000 ]
    mass: 12.010700
    reduced_to: 1
  - symbol: C  # 179
    coordinates: [  0.933332809191467,  0.416666483310684,  0.000000000000000 ]
    mass: 12.010700
    reduced_to: 1
  - symbol: C  # 180
    coordinates: [  0.983332809191467,  0.416666483310684,  0.000000000000000 ]
    mass: 12.010700
    reduced_to: 1
  - symbol: C  # 181
    coordinates: [  0.033332809191467,  0.466666483310684,  0.000000000000000 ]
    mass: 12.010700
    reduced_to: 1
  - symbol: C  # 182
    coordinates: [  0.083332809191467,  0.466666483310684,  0.000000000000000 ]
    mass: 12.010700
    reduced_to: 1
  - symbol: C  # 183
    coordinates: [  0.133332809191467,  0.466666483310684,  0.000000000000000 ]
    mass: 12.010700
    reduced_to: 1
  - symbol: C  # 184
    coordinates: [  0.183332809191467,  0.466666483310684,  0.000000000000000 ]
    mass: 12.010700
    reduced_to: 1
  - symbol: C  # 185
    coordinates: [  0.233332809191467,  0.466666483310684,  0.000000000000000 ]
    mass: 12.010700
    reduced_to: 1
  - symbol: C  # 186
    coordinates: [  0.283332809191467,  0.466666483310684,  0.000000000000000 ]
    mass: 12.010700
    reduced_to: 1
  - symbol: C  # 187
    coordinates: [  0.333332809191467,  0.466666483310684,  0.000000000000000 ]
    mass: 12.010700
    reduced_to: 1
  - symbol: C  # 188
    coordinates: [  0.383332809191467,  0.466666483310684,  0.000000000000000 ]
    mass: 12.010700
    reduced_to: 1
  - symbol: C  # 189
    coordinates: [  0.433332809191467,  0.466666483310684,  0.000000000000000 ]
    mass: 12.010700
    reduced_to: 1
  - symbol: C  # 190
    coordinates: [  0.483332809191467,  0.466666483310684,  0.000000000000000 ]
    mass: 12.010700
    reduced_to: 1
  - symbol: C  # 191
    coordinates: [  0.533332809191467,  0.466666483310684,  0.000000000000000 ]
    mass: 12.010700
    reduced_to: 1
  - symbol: C  # 192
    coordinates: [  0.583332809191467,  0.466666483310684,  0.000000000000000 ]
    mass: 12.010700
    reduced_to: 1
  - symbol: C  # 193
    coordinates: [  0.633332809191467,  0.466666483310684,  0.000000000000000 ]
    mass: 12.010700
    reduced_to: 1
  - symbol: C  # 194
    coordinates: [  0.683332809191467,  0.466666483310684,  0.000000000000000 ]
    mass: 12.010700
    reduced_to: 1
  - symbol: C  # 195
    coordinates: [  0.733332809191467,  0.466666483310684,  0.000000000000000 ]
    mass: 12.010700
    reduced_to: 1
  - symbol: C  # 196
    coordinates: [  0.783332809191467,  0.466666483310684,  0.000000000000000 ]
    mass: 12.010700
    reduced_to: 1
  - symbol: C  # 197
    coordinates: [  0.833332809191467,  0.466666483310684,  0.000000000000000 ]
    mass: 12.010700
    reduced_to: 1
  - symbol: C  # 198
    coordinates: [  0.883332809191467,  0.466666483310684,  0.000000000000000 ]
    mass: 12.010700
    reduced_to: 1