nqpoint: 153    
npath: 3      
segment_nqpoint:
- 51
- 51
- 51
labels:
- [ '$\Gamma$', 'M' ]
- [ 'M', 'K' ]
- [ 'K', '$\Gamma$' ]
reciprocal_lattice:
- [   0.40127623,   0.23166335,   0.00000000 ] # a*
- [   0.00000000,   0.46335388,   0.00000000 ] # b*
- [   0.00000000,   0.00000000,   0.05000000 ] # c*
natom: 2      
lattice:
- [     2.492048940300000,     0.000000000000000,     0.000000000000000 ] # a
- [    -1.245951370200000,     2.158177690400000,     0.000000000000000 ] # b
- [     0.000000000000000,     0.000000000000000,    20.000000000000000 ] # c
points:
- symbol: C  # 1
  coordinates: [  0.666656183829339,  0.333329666213684,  0.000000000000000 ]
  mass: 12.010700
- symbol: C  # 2
  coordinates: [  0.333318149343437,  0.666662999554010,  0.000000000000000 ]
  mass: 12.010700

phonon:
- q-position: [    0.0000000,    0.0000000,    0.0000000 ]
  distance:    0.0000000
  band:
  - # 1
    frequency:   -0.0001083491
    eigenvector:
    - # atom 1
      - [  0.66956010420969,  0.00000000000000 ]
      - [  0.22718640904120,  0.00000000000000 ]
      - [ -0.00869496392594,  0.00000000000000 ]
    - # atom 2
      - [  0.66956010420969,  0.00000000000000 ]
      - [  0.22718640904120,  0.00000000000000 ]
      - [ -0.00869496392594,  0.00000000000000 ]
  - # 2
    frequency:   -0.0000016671
    eigenvector:
    - # atom 1
      - [  0.00771681768780,  0.00000000000000 ]
      - [  0.00431766117616,  0.00000000000000 ]
      - [  0.70705148930381,  0.00000000000000 ]
    - # atom 2
      - [  0.00771681768780,  0.00000000000000 ]
      - [  0.00431766117616,  0.00000000000000 ]
      - [  0.70705148930381,  0.00000000000000 ]
  - # 3
    frequency:    0.0001268454
    eigenvector:
    - # atom 1
      - [  0.22722173658231,  0.00000000000000 ]
      - [ -0.66960263839753,  0.00000000000000 ]
      - [  0.00160906046669,  0.00000000000000 ]
    - # atom 2
      - [  0.22722173658231,  0.00000000000000 ]
      - [ -0.66960263839753,  0.00000000000000 ]
      - [  0.00160906046669,  0.00000000000000 ]
  - # 4
    frequency: 1302.4607458253
    eigenvector:
    - # atom 1
      - [ -0.00000000000000,  0.00000000000000 ]
      - [ -0.00000000000000,  0.00000000000000 ]
      - [ -0.70710678118655,  0.00000000000000 ]
    - # atom 2
      - [  0.00000000000000,  0.00000000000000 ]
      - [  0.00000000000000,  0.00000000000000 ]
      - [  0.70710678118655,  0.00000000000000 ]
  - # 5
    frequency: 1688.9673859230
    eigenvector:
    - # atom 1
      - [ -0.56106293155178,  0.00000000000000 ]
      - [ -0.43035843995269,  0.00000000000000 ]
      - [  0.00000000000000,  0.00000000000000 ]
    - # atom 2
      - [  0.56106293155178,  0.00000000000000 ]
      - [  0.43035843995269,  0.00000000000000 ]
      - [ -0.00000000000000,  0.00000000000000 ]
  - # 6
    frequency: 1689.1730709182
    eigenvector:
    - # atom 1
      - [  0.43035843995269,  0.00000000000000 ]
      - [ -0.56106293155178,  0.00000000000000 ]
      - [  0.00000000000000,  0.00000000000000 ]
    - # atom 2
      - [ -0.43035843995269,  0.00000000000000 ]
      - [  0.56106293155178,  0.00000000000000 ]
      - [  0.00000000000000,  0.00000000000000 ]

- q-position: [    0.0100000,    0.0000000,    0.0000000 ]
  distance:    0.0046335
  band:
  - # 1
    frequency:   -0.2491601669
    eigenvector:
    - # atom 1
      - [  0.00000000000016,  0.00000000000000 ]
      - [ -0.00000000000019, -0.00000000000000 ]
      - [ -0.70708907249695,  0.00500435364449 ]
    - # atom 2
      - [  0.00000000000016,  0.00000000000000 ]
      - [ -0.00000000000019, -0.00000000000000 ]
      - [ -0.70708909130075,  0.00500169606081 ]
  - # 2
    frequency:   23.1604685605
    eigenvector:
    - # atom 1
      - [ -0.35349898297021,  0.00000000000000 ]
      - [  0.61240384472785,  0.00000125146221 ]
      - [ -0.00000000000024,  0.00000000000000 ]
    - # atom 2
      - [ -0.35348101788841, -0.00356383972034 ]
      - [  0.61237273452474,  0.00617276677929 ]
      - [ -0.00000000000024,  0.00000000000000 ]
  - # 3
    frequency:   33.8776257384
    eigenvector:
    - # atom 1
      - [  0.61240384677119,  0.00000000000000 ]
      - [  0.35349897943245,  0.00000025436394 ]
      - [  0.00000000000004,  0.00000000000000 ]
    - # atom 2
      - [  0.61237277453590, -0.00616899889413 ]
      - [  0.35348104098760, -0.00356119673358 ]
      - [  0.00000000000004,  0.00000000000000 ]
  - # 4
    frequency: 1302.1750631090
    eigenvector:
    - # atom 1
      - [ -0.00000000000000,  0.00000000000000 ]
      - [ -0.00000000000000,  0.00000000000000 ]
      - [ -0.70710302281579,  0.00230545543641 ]
    - # atom 2
      - [  0.00000000000000, -0.00000000000000 ]
      - [  0.00000000000000, -0.00000000000000 ]
      - [  0.70710303147582, -0.00230279780032 ]
  - # 5
    frequency: 1688.8904609873
    eigenvector:
    - # atom 1
      - [ -0.56029288520844,  0.00000000000000 ]
      - [ -0.43135889459717,  0.00117764031374 ]
      - [  0.00000000000000, -0.00000000000000 ]
    - # atom 2
      - [  0.56025418188793, -0.00658550622861 ]
      - [  0.43134293925637, -0.00389249771714 ]
      - [ -0.00000000000000,  0.00000000000000 ]
  - # 6
    frequency: 1689.0934297992
    eigenvector:
    - # atom 1
      - [  0.43136049921577,  0.00000000000000 ]
      - [ -0.56029079762600,  0.00153029799318 ]
      - [  0.00000000000000,  0.00000000000000 ]
    - # atom 2
      - [ -0.43135194674699, -0.00271630654784 ]
      - [  0.56027005249975,  0.00505845710192 ]
      - [  0.00000000000000, -0.00000000000000 ]

- q-position: [    0.0200000,    0.0000000,    0.0000000 ]
  distance:    0.0092669
  band:
  - # 1
    frequency:    0.8546238823
    eigenvector:
    - # atom 1
      - [  0.00000000000004,  0.00000000000000 ]
      - [ -0.00000000000007,  0.00000000000000 ]
      - [ -0.70709655361555, -0.00380313883597 ]
    - # atom 2
      - [  0.00000000000004,  0.00000000000000 ]
      - [ -0.00000000000007, -0.00000000000000 ]
      - [ -0.70709645479360, -0.00382146808499 ]
  - # 2
    frequency:   46.3054408662
    eigenvector:
    - # atom 1
      - [ -0.35349901349921,  0.00000000000000 ]
      - [  0.61240382710172,  0.00000250047228 ]
      - [ -0.00000000000008, -0.00000000000000 ]
    - # atom 2
      - [ -0.35342698940164, -0.00713552432596 ]
      - [  0.61227910259294,  0.01235912549785 ]
      - [ -0.00000000000008, -0.00000000000000 ]
  - # 3
    frequency:   67.7371908166
    eigenvector:
    - # atom 1
      - [  0.61240383525755,  0.00000000000000 ]
      - [  0.35349899937848,  0.00000050993209 ]
      - [  0.00000000000000, -0.00000000000000 ]
    - # atom 2
      - [  0.61227955919304, -0.01233688909450 ]
      - [  0.35342725300314, -0.00712175515607 ]
      - [  0.00000000000000, -0.00000000000000 ]
  - # 4
    frequency: 1301.3183910344
    eigenvector:
    - # atom 1
      - [  0.00000000000000,  0.00000000000000 ]
      - [  0.00000000000000,  0.00000000000000 ]
      - [  0.70709161431901, -0.00463130216435 ]
    - # atom 2
      - [ -0.00000000000000,  0.00000000000000 ]
      - [ -0.00000000000000,  0.00000000000000 ]
      - [ -0.70709173413336,  0.00461297304053 ]
  - # 5
    frequency: 1688.6593518376
    eigenvector:
    - # atom 1
      - [ -0.55797113261299,  0.00000000000000 ]
      - [ -0.43435257983067,  0.00245999289109 ]
      - [  0.00000000000000, -0.00000000000000 ]
    - # atom 2
      - [  0.55781497714316, -0.01319985243099 ]
      - [  0.43428921635903, -0.00781611955094 ]
      - [ -0.00000000000000,  0.00000000000000 ]
  - # 6
    frequency: 1688.8545968637
    eigenvector:
    - # atom 1
      - [ -0.43435953447290,  0.00000000000000 ]
      - [  0.55796218552237, -0.00316138254325 ]
      - [  0.00000000000000,  0.00000000000000 ]
    - # atom 2
      - [  0.43432634221089,  0.00536969731189 ]
      - [ -0.55788046590630, -0.01005885543499 ]
      - [ -0.00000000000000, -0.00000000000000 ]

- q-position: [    0.0300000,    0.0000000,    0.0000000 ]
  distance:    0.0139004
  band:
  - # 1
    frequency:    2.3037055735
    eigenvector:
    - # atom 1
      - [  0.00000000000002,  0.00000000000000 ]
      - [ -0.00000000000002,  0.00000000000000 ]
      - [ -0.70707660230796, -0.00653287598415 ]
    - # atom 2
      - [  0.00000000000002,  0.00000000000000 ]
      - [ -0.00000000000002, -0.00000000000000 ]
      - [ -0.70707604435112, -0.00659298906200 ]
  - # 2
    frequency:   69.4194081697
    eigenvector:
    - # atom 1
      - [ -0.35349906441031,  0.00000000000000 ]
      - [  0.61240379770786,  0.00000374457159 ]
      - [ -0.00000000000002, -0.00000000000000 ]
    - # atom 2
      - [ -0.35333639447962, -0.01072291355494 ]
      - [  0.61212210097756,  0.01857269382329 ]
      - [ -0.00000000000002, -0.00000000000000 ]
  - # 3
    frequency:  101.5606559193
    eigenvector:
    - # atom 1
      - [  0.61240381599262,  0.00000000000000 ]
      - [  0.35349903275269,  0.00000076791210 ]
      - [  0.00000000000000, -0.00000000000000 ]
    - # atom 2
      - [  0.61212424324316, -0.01850255864224 ]
      - [  0.35333763123580, -0.01068103507894 ]
      - [  0.00000000000000, -0.00000000000000 ]
  - # 4
    frequency: 1299.8918583233
    eigenvector:
    - # atom 1
      - [  0.00000000000000,  0.00000000000000 ]
      - [  0.00000000000000,  0.00000000000000 ]
      - [  0.70707230809933, -0.00698220016097 ]
    - # atom 2
      - [ -0.00000000000000,  0.00000000000000 ]
      - [ -0.00000000000000,  0.00000000000000 ]
      - [ -0.70707289914551,  0.00692208739935 ]
  - # 5
    frequency: 1688.2730601094
    eigenvector:
    - # atom 1
      - [ -0.55411615720322,  0.00000000000000 ]
      - [ -0.43924898824425,  0.00395103185808 ]
      - [  0.00000000000000, -0.00000000000000 ]
    - # atom 2
      - [  0.55375978634802, -0.01986994457609 ]
      - [  0.43910817164373, -0.01180245406838 ]
      - [ -0.00000000000000,  0.00000000000000 ]
  - # 6
    frequency: 1688.4568412636
    eigenvector:
    - # atom 1
      - [ -0.43926673211734,  0.00000000000000 ]
      - [  0.55409374464689, -0.00498600021423 ]
      - [  0.00000000000000,  0.00000000000000 ]
    - # atom 2
      - [  0.43919570585187,  0.00789898134764 ]
      - [ -0.55391449243783, -0.01494901743553 ]
      - [ -0.00000000000000, -0.00000000000000 ]

- q-position: [    0.0400000,    0.0000000,    0.0000000 ]
  distance:    0.0185339
  band:
  - # 1
    frequency:    4.3045625907
    eigenvector:
    - # atom 1
      - [  0.00000000000001,  0.00000000000000 ]
      - [ -0.00000000000001,  0.00000000000000 ]
      - [ -0.70710090247180, -0.00288335283499 ]
    - # atom 2
      - [  0.00000000000001,  0.00000000000000 ]
      - [ -0.00000000000001, -0.00000000000000 ]
      - [ -0.70710031222537, -0.00302464060377 ]
  - # 2
    frequency:   92.4868365971
    eigenvector:
    - # atom 1
      - [ -0.35349913573587,  0.00000000000000 ]
      - [  0.61240375652765,  0.00000498128958 ]
      - [ -0.00000000000001, -0.00000000000000 ]
    - # atom 2
      - [ -0.35320840643044, -0.01433389663955 ]
      - [  0.61190029753866,  0.02482714051370 ]
      - [ -0.00000000000001, -0.00000000000000 ]
  - # 3
    frequency:  135.3300243979
    eigenvector:
    - # atom 1
      - [  0.61240378886918,  0.00000000000000 ]
      - [  0.35349907974083,  0.00000102951928 ]
      - [  0.00000000000000, -0.00000000000000 ]
    - # atom 2
      - [  0.61190689150586, -0.02466488899137 ]
      - [  0.35321221320469, -0.01423839252596 ]
      - [  0.00000000000000, -0.00000000000000 ]
  - # 4
    frequency: 1297.8973478549
    eigenvector:
    - # atom 1
      - [  0.00000000000000,  0.00000000000000 ]
      - [  0.00000000000000,  0.00000000000000 ]
      - [  0.70704480604612, -0.00936174359865 ]
    - # atom 2
      - [ -0.00000000000000,  0.00000000000000 ]
      - [ -0.00000000000000,  0.00000000000000 ]
      - [ -0.70704666252808,  0.00922046679421 ]
  - # 5
    frequency: 1687.7299394808
    eigenvector:
    - # atom 1
      - [ -0.54897528316914,  0.00000000000000 ]
      - [ -0.44563804500692,  0.00573335083290 ]
      - [  0.00000000000000, -0.00000000000000 ]
    - # atom 2
      - [  0.54832979466397, -0.02661386507842 ]
      - [  0.44539200913946, -0.01587755220679 ]
      - [ -0.00000000000000,  0.00000000000000 ]
  - # 6
    frequency: 1687.9006024643
    eigenvector:
    - # atom 1
      - [ -0.44567488024571,  0.00000000000000 ]
      - [  0.54892985881292, -0.00706478744171 ]
      - [  0.00000000000000, -0.00000000000000 ]
    - # atom 2
      - [  0.44555677177935,  0.01025972726707 ]
      - [ -0.54862175067804, -0.01969963961419 ]
      - [ -0.00000000000000,  0.00000000000000 ]

- q-position: [    0.0500000,    0.0000000,    0.0000000 ]
  distance:    0.0231674
  band:
  - # 1
    frequency:    6.8671480287
    eigenvector:
    - # atom 1
      - [  0.00000000000000,  0.00000000000000 ]
      - [ -0.00000000000000,  0.00000000000000 ]
      - [ -0.70693898612733, -0.01540356754975 ]
    - # atom 2
      - [  0.00000000000000,  0.00000000000000 ]
      - [ -0.00000000000000,  0.00000000000000 ]
      - [ -0.70693293355883, -0.01567888548033 ]
  - # 2
    frequency:  115.4921542400
    eigenvector:
    - # atom 1
      - [ -0.35349922752353,  0.00000000000000 ]
      - [  0.61240370353364,  0.00000620813723 ]
      - [ -0.00000000000001, -0.00000000000000 ]
    - # atom 2
      - [ -0.35304185682230, -0.01797640651516 ]
      - [  0.61161166810746,  0.03113621003057 ]
      - [ -0.00000000000001, -0.00000000000000 ]
  - # 3
    frequency:  169.0273635437
    eigenvector:
    - # atom 1
      - [ -0.61240375373424,  0.00000000000000 ]
      - [ -0.35349914060790, -0.00000129598022 ]
      - [ -0.00000000000000,  0.00000000000000 ]
    - # atom 2
      - [ -0.61162759549691,  0.03082275157190 ]
      - [ -0.35305105188559,  0.01779317775676 ]
      - [ -0.00000000000000,  0.00000000000000 ]
  - # 4
    frequency: 1295.3374992318
    eigenvector:
    - # atom 1
      - [  0.00000000000000,  0.00000000000000 ]
      - [ -0.00000000000000,  0.00000000000000 ]
      - [  0.70700779062106, -0.01183148347136 ]
    - # atom 2
      - [ -0.00000000000000,  0.00000000000000 ]
      - [ -0.00000000000000,  0.00000000000000 ]
      - [ -0.70701234480386,  0.01155613667929 ]
  - # 5
    frequency: 1687.0277272918
    eigenvector:
    - # atom 1
      - [ -0.54345139372485,  0.00000000000000 ]
      - [ -0.45232710570738,  0.00779564627867 ]
      - [  0.00000000000000, -0.00000000000000 ]
    - # atom 2
      - [  0.54242263189197, -0.03342313200275 ]
      - [  0.45195028829541, -0.02003795319406 ]
      - [ -0.00000000000000,  0.00000000000000 ]
  - # 6
    frequency: 1687.1864713475
    eigenvector:
    - # atom 1
      - [  0.45239420996625,  0.00000000000000 ]
      - [ -0.54337070439730,  0.00936783816047 ]
      - [ -0.00000000000000, -0.00000000000000 ]
    - # atom 2
      - [ -0.45222224167189, -0.01247258386369 ]
      - [  0.54290588041042,  0.02434509816788 ]
      - [  0.00000000000000, -0.00000000000000 ]

- q-position: [    0.0600000,    0.0000000,    0.0000000 ]
  distance:    0.0278008
  band:
  - # 1
    frequency:    9.9903733853
    eigenvector:
    - # atom 1
      - [  0.00000000000000,  0.00000000000000 ]
      - [  0.00000000000000,  0.00000000000000 ]
      - [ -0.70685189379046, -0.01898421040871 ]
    - # atom 2
      - [  0.00000000000000, -0.00000000000000 ]
      - [  0.00000000000000,  0.00000000000000 ]
      - [ -0.70683894609131, -0.01946032601268 ]
  - # 2
    frequency:  138.4197378312
    eigenvector:
    - # atom 1
      - [ -0.35349933983388,  0.00000000000000 ]
      - [  0.61240363869095,  0.00000742260058 ]
      - [  0.00000000000000, -0.00000000000000 ]
    - # atom 2
      - [ -0.35283522432912, -0.02165843336003 ]
      - [  0.61125357716631,  0.03751374599262 ]
      - [  0.00000000000000, -0.00000000000000 ]
  - # 3
    frequency:  202.6348257899
    eigenvector:
    - # atom 1
      - [ -0.61240371038891,  0.00000000000000 ]
      - [ -0.35349921569847, -0.00000156853663 ]
      - [ -0.00000000000000,  0.00000000000000 ]
    - # atom 2
      - [ -0.61128647421997,  0.03697500417605 ]
      - [ -0.35285421616725,  0.02134473318851 ]
      - [ -0.00000000000000,  0.00000000000000 ]
  - # 4
    frequency: 1292.2157124778
    eigenvector:
    - # atom 1
      - [  0.00000000000000,  0.00000000000000 ]
      - [  0.00000000000000, -0.00000000000000 ]
      - [  0.70696294832307, -0.01426147602277 ]
    - # atom 2
      - [ -0.00000000000000,  0.00000000000000 ]
      - [ -0.00000000000000,  0.00000000000000 ]
      - [ -0.70697239416292,  0.01378527807300 ]
  - # 5
    frequency: 1686.1635851864
    eigenvector:
    - # atom 1
      - [ -0.53965705856455,  0.00000000000000 ]
      - [ -0.45680690536844,  0.00988485453428 ]
      - [  0.00000000000000,  0.00000000000000 ]
    - # atom 2
      - [  0.53815524758097, -0.04023270261369 ]
      - [  0.45627259712504, -0.02419868290294 ]
      - [ -0.00000000000000,  0.00000000000000 ]
  - # 6
    frequency: 1686.3151673359
    eigenvector:
    - # atom 1
      - [  0.45691374610572,  0.00000000000000 ]
      - [ -0.53953075894168,  0.01167856050413 ]
      - [  0.00000000000000,  0.00000000000000 ]
    - # atom 2
      - [ -0.45667666514993, -0.01471716303890 ]
      - [  0.53887464441336,  0.02905075262364 ]
      - [  0.00000000000000, -0.00000000000000 ]

- q-position: [    0.0700000,    0.0000000,    0.0000000 ]
  distance:    0.0324343
  band:
  - # 1
    frequency:   13.6707847279
    eigenvector:
    - # atom 1
      - [  0.00000000000000,  0.00000000000000 ]
      - [ -0.00000000000000, -0.00000000000000 ]
      - [ -0.70688309859900,  0.01778440089170 ]
    - # atom 2
      - [  0.00000000000000,  0.00000000000000 ]
      - [ -0.00000000000000, -0.00000000000000 ]
      - [ -0.70690176533809,  0.01702627856856 ]
  - # 2
    frequency:  161.2538988702
    eigenvector:
    - # atom 1
      - [ -0.35349947273912,  0.00000000000000 ]
      - [  0.61240356195798,  0.00000862213391 ]
      - [ -0.00000000000000,  0.00000000000000 ]
    - # atom 2
      - [ -0.35258662027055, -0.02538803720305 ]
      - [  0.61082275279891,  0.04397371301509 ]
      - [ -0.00000000000000,  0.00000000000000 ]
  - # 3
    frequency:  236.1346698173
    eigenvector:
    - # atom 1
      - [ -0.61240365858704,  0.00000000000000 ]
      - [ -0.35349930543891, -0.00000184844939 ]
      - [ -0.00000000000000, -0.00000000000000 ]
    - # atom 2
      - [ -0.61088367521402,  0.04312048710071 ]
      - [ -0.35262179145749,  0.02489239117711 ]
      - [ -0.00000000000000, -0.00000000000000 ]
  - # 4
    frequency: 1288.5361529744
    eigenvector:
    - # atom 1
      - [  0.00000000000000,  0.00000000000000 ]
      - [  0.00000000000000,  0.00000000000000 ]
      - [  0.70690889001598, -0.01672785749503 ]
    - # atom 2
      - [ -0.00000000000000,  0.00000000000000 ]
      - [ -0.00000000000000,  0.00000000000000 ]
      - [ -0.70692642362738,  0.01596970811895 ]
  - # 5
    frequency: 1685.1341009202
    eigenvector:
    - # atom 1
      - [ -0.54074117015485,  0.00000000000000 ]
      - [ -0.45548782371180,  0.01139426828942 ]
      - [  0.00000000000000, -0.00000000000000 ]
    - # atom 2
      - [  0.53870348299875, -0.04689957894737 ]
      - [  0.45475964667501, -0.02815405220545 ]
      - [ -0.00000000000000,  0.00000000000000 ]
  - # 6
    frequency: 1685.2875593454
    eigenvector:
    - # atom 1
      - [  0.45563018844446,  0.00000000000000 ]
      - [ -0.54057206202501,  0.01352690415783 ]
      - [ -0.00000000000000, -0.00000000000000 ]
    - # atom 2
      - [ -0.45529781724443, -0.01740017914851 ]
      - [  0.53966114534048,  0.03416108294321 ]
      - [  0.00000000000000, -0.00000000000000 ]

- q-position: [    0.0800000,    0.0000000,    0.0000000 ]
  distance:    0.0370678
  band:
  - # 1
    frequency:   17.9037266628
    eigenvector:
    - # atom 1
      - [  0.00000000000000,  0.00000000000000 ]
      - [ -0.00000000000000, -0.00000000000000 ]
      - [ -0.70706394187426,  0.00778345047127 ]
    - # atom 2
      - [  0.00000000000000,  0.00000000000000 ]
      - [ -0.00000000000000, -0.00000000000000 ]
      - [ -0.70707553823298,  0.00664704690337 ]
  - # 2
    frequency:  183.9788690623
    eigenvector:
    - # atom 1
      - [ -0.35349962632170,  0.00000000000000 ]
      - [  0.61240347328726,  0.00000980415269 ]
      - [ -0.00000000000000,  0.00000000000000 ]
    - # atom 2
      - [ -0.35229377076048, -0.02917335930157 ]
      - [  0.61031525576471,  0.05053021641828 ]
      - [ -0.00000000000000,  0.00000000000000 ]
  - # 3
    frequency:  269.5092815409
    eigenvector:
    - # atom 1
      - [ -0.61240359803355,  0.00000000000000 ]
      - [ -0.35349941034038, -0.00000213700263 ]
      - [ -0.00000000000000, -0.00000000000000 ]
    - # atom 2
      - [ -0.61041937588139,  0.04925801897162 ]
      - [ -0.35235388045202,  0.02843547161501 ]
      - [ -0.00000000000000, -0.00000000000000 ]
  - # 4
    frequency: 1284.3037577820
    eigenvector:
    - # atom 1
      - [  0.00000000000000,  0.00000000000000 ]
      - [  0.00000000000000, -0.00000000000000 ]
      - [  0.70683905215063, -0.01945647333912 ]
    - # atom 2
      - [ -0.00000000000000,  0.00000000000000 ]
      - [ -0.00000000000000,  0.00000000000000 ]
      - [ -0.70686940968791,  0.01832041613782 ]
  - # 5
    frequency: 1683.9351780354
    eigenvector:
    - # atom 1
      - [ -0.54866247975196,  0.00000000000000 ]
      - [ -0.44590803844804,  0.01164064258760 ]
      - [  0.00000000000000, -0.00000000000000 ]
    - # atom 2
      - [  0.54607286407964, -0.05324419032548 ]
      - [  0.44493306043319, -0.03168682764180 ]
      - [ -0.00000000000000,  0.00000000000000 ]
  - # 6
    frequency: 1684.1048038088
    eigenvector:
    - # atom 1
      - [  0.44605978368198,  0.00000000000000 ]
      - [ -0.54847563240691,  0.01432305963899 ]
      - [ -0.00000000000000,  0.00000000000000 ]
    - # atom 2
      - [ -0.44556593971933, -0.02098389812355 ]
      - [  0.54719460456062,  0.04010902792788 ]
      - [  0.00000000000000, -0.00000000000000 ]

- q-position: [    0.0900000,    0.0000000,    0.0000000 ]
  distance:    0.0417012
  band:
  - # 1
    frequency:   22.6836129919
    eigenvector:
    - # atom 1
      - [  0.00000000000000,  0.00000000000000 ]
      - [ -0.00000000000000,  0.00000000000000 ]
      - [ -0.70682433608823, -0.01998394138896 ]
    - # atom 2
      - [  0.00000000000000,  0.00000000000000 ]
      - [ -0.00000000000000, -0.00000000000000 ]
      - [ -0.70677650836688, -0.02160942434977 ]
  - # 2
    frequency:  206.5787849397
    eigenvector:
    - # atom 1
      - [ -0.35349980067268,  0.00000000000000 ]
      - [  0.61240337262634,  0.00001096602597 ]
      - [ -0.00000000000000, -0.00000000000000 ]
    - # atom 2
      - [ -0.35195399536728, -0.03302263194588 ]
      - [  0.60972644253017,  0.05719751921084 ]
      - [ -0.00000000000000, -0.00000000000000 ]
  - # 3
    frequency:  302.7411949523
    eigenvector:
    - # atom 1
      - [  0.61240352838219,  0.00000000000000 ]
      - [  0.35349953100267,  0.00000243550799 ]
      - [  0.00000000000000, -0.00000000000000 ]
    - # atom 2
      - [  0.60989378512810, -0.05538639216515 ]
      - [  0.35205060408417, -0.03197327929710 ]
      - [  0.00000000000000, -0.00000000000000 ]
  - # 4
    frequency: 1279.5242435280
    eigenvector:
    - # atom 1
      - [  0.00000000000000,  0.00000000000000 ]
      - [  0.00000000000000,  0.00000000000000 ]
      - [  0.70675175539467, -0.02240438007502 ]
    - # atom 2
      - [ -0.00000000000000,  0.00000000000000 ]
      - [  0.00000000000000,  0.00000000000000 ]
      - [ -0.70680141139952,  0.02077895193819 ]
  - # 5
    frequency: 1682.5618968655
    eigenvector:
    - # atom 1
      - [ -0.56150617910949,  0.00000000000000 ]
      - [ -0.42965081368587,  0.01053513744265 ]
      - [  0.00000000000000, -0.00000000000000 ]
    - # atom 2
      - [  0.55837871828969, -0.05918104543929 ]
      - [  0.42836812853460, -0.03480743135655 ]
      - [ -0.00000000000000,  0.00000000000000 ]
  - # 6
    frequency: 1682.7685162295
    eigenvector:
    - # atom 1
      - [  0.42977973448184,  0.00000000000000 ]
      - [ -0.56133748825475,  0.01376968077209 ]
      - [ -0.00000000000000, -0.00000000000000 ]
    - # atom 2
      - [ -0.42901900150903, -0.02556005703205 ]
      - [  0.55952497430973,  0.04712942766901 ]
      - [  0.00000000000000, -0.00000000000000 ]

- q-position: [    0.1000000,    0.0000000,    0.0000000 ]
  distance:    0.0463347
  band:
  - # 1
    frequency:   28.0040051780
    eigenvector:
    - # atom 1
      - [  0.00000000000000,  0.00000000000000 ]
      - [ -0.00000000000000, -0.00000000000000 ]
      - [ -0.70709258349901,  0.00448088838199 ]
    - # atom 2
      - [  0.00000000000000,  0.00000000000000 ]
      - [ -0.00000000000000, -0.00000000000000 ]
      - [ -0.70710324256402,  0.00223704167468 ]
  - # 2
    frequency:  229.0376715358
    eigenvector:
    - # atom 1
      - [ -0.35349999588975,  0.00000000000000 ]
      - [  0.61240325991899,  0.00001210506851 ]
      - [ -0.00000000000000,  0.00000000000000 ]
    - # atom 2
      - [ -0.35156418218203, -0.03694418629142 ]
      - [  0.60905092207719,  0.06399005565608 ]
      - [ -0.00000000000000, -0.00000000000000 ]
  - # 3
    frequency:  335.8131127944
    eigenvector:
    - # atom 1
      - [ -0.61240344923299,  0.00000000000000 ]
      - [ -0.35349966811866, -0.00000274530910 ]
      - [ -0.00000000000000, -0.00000000000000 ]
    - # atom 2
      - [ -0.60930714535654,  0.06150436773045 ]
      - [ -0.35171210267860,  0.03550510099877 ]
      - [ -0.00000000000000, -0.00000000000000 ]
  - # 4
    frequency: 1274.2041160924
    eigenvector:
    - # atom 1
      - [  0.00000000000000,  0.00000000000000 ]
      - [ -0.00000000000000,  0.00000000000000 ]
      - [  0.70665170418197, -0.02536471913355 ]
    - # atom 2
      - [ -0.00000000000000,  0.00000000000000 ]
      - [ -0.00000000000000,  0.00000000000000 ]
      - [ -0.70672863634106,  0.02312216632380 ]
  - # 5
    frequency: 1681.0085990040
    eigenvector:
    - # atom 1
      - [ -0.57489022728978,  0.00000000000000 ]
      - [ -0.41161316245960,  0.00870810293410 ]
      - [  0.00000000000000, -0.00000000000000 ]
    - # atom 2
      - [  0.57122513838624, -0.06481214939276 ]
      - [  0.40997074809741, -0.03775198367184 ]
      - [ -0.00000000000000,  0.00000000000000 ]
  - # 6
    frequency: 1681.2807240485
    eigenvector:
    - # atom 1
      - [  0.41170498520201,  0.00000000000000 ]
      - [ -0.57476168426793,  0.01216599594366 ]
      - [ -0.00000000000000,  0.00000000000000 ]
    - # atom 2
      - [ -0.41055607983845, -0.03073597481575 ]
      - [  0.57224949577390,  0.05504107326648 ]
      - [  0.00000000000000, -0.00000000000000 ]

- q-position: [    0.1100000,    0.0000000,    0.0000000 ]
  distance:    0.0509682
  band:
  - # 1
    frequency:   33.8576340197
    eigenvector:
    - # atom 1
      - [  0.00000000000000,  0.00000000000000 ]
      - [ -0.00000000000000,  0.00000000000000 ]
      - [ -0.70576216594766, -0.04358629505781 ]
    - # atom 2
      - [  0.00000000000000,  0.00000000000000 ]
      - [ -0.00000000000000, -0.00000000000000 ]
      - [ -0.70557044653366, -0.04658696146235 ]
  - # 2
    frequency:  251.3394249920
    eigenvector:
    - # atom 1
      - [ -0.35350021207476,  0.00000000000000 ]
      - [  0.61240313510658,  0.00001321853226 ]
      - [ -0.00000000000000, -0.00000000000000 ]
    - # atom 2
      - [ -0.35112075919052, -0.04094645775125 ]
      - [  0.60828250630830,  0.07092244061225 ]
      - [ -0.00000000000000, -0.00000000000000 ]
  - # 3
    frequency:  368.7079270434
    eigenvector:
    - # atom 1
      - [ -0.61240336012918,  0.00000000000000 ]
      - [ -0.35349982247955, -0.00000306778628 ]
      - [ -0.00000000000000,  0.00000000000000 ]
    - # atom 2
      - [ -0.60865973486047,  0.06761066969860 ]
      - [ -0.35133853733780,  0.03903020220059 ]
      - [ -0.00000000000000,  0.00000000000000 ]
  - # 4
    frequency: 1268.3506823697
    eigenvector:
    - # atom 1
      - [  0.00000000000000,  0.00000000000000 ]
      - [  0.00000000000000,  0.00000000000000 ]
      - [  0.70651270314817, -0.02897930796723 ]
    - # atom 2
      - [ -0.00000000000000,  0.00000000000000 ]
      - [ -0.00000000000000,  0.00000000000000 ]
      - [ -0.70662954231584,  0.02597479406080 ]
  - # 5
    frequency: 1679.2691282082
    eigenvector:
    - # atom 1
      - [ -0.58582793586382,  0.00000000000000 ]
      - [ -0.39592760745989,  0.00685267922983 ]
      - [  0.00000000000000, -0.00000000000000 ]
    - # atom 2
      - [  0.58159066463663, -0.07033256177609 ]
      - [  0.39388658807402, -0.04073064321790 ]
      - [ -0.00000000000000,  0.00000000000000 ]
  - # 6
    frequency: 1679.6436677476
    eigenvector:
    - # atom 1
      - [  0.39598655801318,  0.00000000000000 ]
      - [ -0.58574032196853,  0.01014500335525 ]
      - [ -0.00000000000000, -0.00000000000000 ]
    - # atom 2
      - [ -0.39434285810947, -0.03604253577617 ]
      - [  0.58238557941399,  0.06341673882746 ]
      - [  0.00000000000000,  0.00000000000000 ]

- q-position: [    0.1200000,    0.0000000,    0.0000000 ]
  distance:    0.0556016
  band:
  - # 1
    frequency:   40.2363998876
    eigenvector:
    - # atom 1
      - [  0.00000000000000,  0.00000000000000 ]
      - [ -0.00000000000000,  0.00000000000000 ]
      - [ -0.70705574847458, -0.00849520741678 ]
    - # atom 2
      - [  0.00000000000000,  0.00000000000000 ]
      - [ -0.00000000000000, -0.00000000000000 ]
      - [ -0.70699755596101, -0.01242802740434 ]
  - # 2
    frequency:  273.4677939792
    eigenvector:
    - # atom 1
      - [ -0.35350044933067,  0.00000000000000 ]
      - [  0.61240299812984,  0.00001430359744 ]
      - [ -0.00000000000000, -0.00000000000000 ]
    - # atom 2