LAMMPS data file via write_data, version 23 Jun 2022, timestep = 6

2 atoms
1 atom types

-2.7412492423182567e-05 2.492021527792423 xlo xhi
-7.914288269169927e-06 2.1581697760882688 ylo yhi
0 20 zlo zhi
-1.2459513701967906 0 0 xy xz yz

Masses

1 12.0107

Atoms # atomic

1 1 1.246027282100064 0.7193846491630311 0 0 0 0
2 1 1.5463095196878928e-05 1.4387772126369687 0 0 0 0

Velocities

1 0 0 0
2 0 0 0
