12288
Lattice="52.29502375 0.0 0.0 0.0 52.28970962 0.0 0.0 0.0 52.27894477" Properties=species:S:1:pos:R:3:group:I:1 Time=119999.9999998 energy=-90139.45452213 virial="-920.78844528 40.02857093 17.81079269 40.02857093 -1096.71944534 -2.27376064 17.81079269 -2.27376064 -1059.94172622" stress="0.00036744 0.00028001 0.00012459 0.00028001 -0.00089946 -1.591e-05 0.00012459 -1.591e-05 -0.00077481" pbc="T T T"
Li       6.73699269       3.50021634      14.41761083        0
Li      17.49772734      13.98291763      17.04263193        0
Li      20.62558979      17.44035782      15.53172154        0
Li      15.28793996      14.11426471      21.52600706        0
Li      16.33619277      24.55546171      13.13824069        0
Li      18.33801929      24.86378094      30.05684671        0
Li      18.43724096      22.26039112      18.65113502        0
Li      27.13477557      17.87753175      17.27869507        0
Li      22.34982513      12.01498029      20.64268630        0
Li      18.77914728      21.18807210      10.91414116        0
Li       8.01629938      19.45566589      16.47974382        0
Li      20.50069564       5.16765844      15.91249915        0
Li      21.93093039      25.51388480      21.76049218        0
Li      23.85719933      14.27825673      14.61259283        0
Li      13.93640153      24.78511097      21.96136273        0
Li      23.60165253      12.19868822      18.59671658        0
Li      18.75215631      16.03410131      20.73128930        0
Li      28.60790894      18.89188901      27.23133757        0
Li      17.45198036      27.15295370      17.40443681        0
Li      10.75614116      18.77755751       8.75007344        0
Li      21.36110462      13.22766853      23.14584642        0
Li      17.54198565       2.23321547      21.00230750        0
Li      23.53201774       5.49643079       7.95160251        0
Li      22.05431166       7.63856750      27.29938321        0
Li      13.07370574      22.50399573      21.41459346        0
Li       5.11912537      21.94493523      18.88921966        0
Li      15.59400031      20.49326444      17.81591188        0
Li      24.62679934      13.06984400      16.61603096        0
Li      16.41701598      11.56407124      12.75085537        0
Li      18.59857850       4.26333411      21.81576376        0
Li      24.47930687       2.40609001      25.33393770        0
Li      17.57449722      13.79235014       3.96708247        0
Li       6.08544977       9.24440147      24.24953360        0
Li      14.61974741      10.85416705       0.89696651        0
Li      27.73273947      15.56525535       5.78876423        0
Li      18.68239668      15.62136299       7.41305963        0
Li      20.52366800      20.62674172       3.95917818        0
Li      25.35068450      20.92317803       8.73667682        0
Li       5.87303546      29.05103924       8.00848941        0
Li      30.34263937      14.25647034       5.71659614        0
Li      25.50254966      14.80382976       4.19184252        0
Li      10.60756163      14.07372769      27.62168252        0
Li       4.46739167       4.34730082      13.64160930        0
Li      20.42816514      15.23455588       8.70482791        0
Li      11.39110282      15.53682169      12.03048978        0
Li      18.30659358      25.09368616       3.55833849        0
Li      10.03289846      21.64666623      13.18585990        0
Li      22.91296075      17.93165415       6.31698375        0
Li      18.62592202      17.08593767       0.81868688        0
Li      27.05324767      24.27323741       8.63988082        0
Li      20.35398176      24.99505997      24.16719836        0
Li       8.90463005      25.34703768      47.40809554        0
Li      20.93635933       4.11484628       7.13777162        0
Li      11.52488862      52.16984332       3.75177871        0
Li      21.52607776      49.98836381      44.77326337        0
Li      15.08061060      12.83087898      10.11864180        0
Li      12.30719990      18.18912694      10.75045085        0
Li       7.97166209      17.58956993       2.41856144        0
Li      14.69200347      19.54741971       3.03982266        0
Li      23.58872115      18.44830101      20.14744376        0
Li      21.46695256      12.83795980       9.37174315        0
Li      15.31954830       5.68686244       2.06032651        0
Li      27.27561268       1.99748663      11.22934383        0
Li      20.94021769       8.97128211      25.31128429        0
Li       3.58439470      28.12167727      19.57756080        0
Li      20.65004390       2.04884089       8.98428427        0
Li      27.65714081       0.19997133      23.45406300        0
Li      15.38314809      26.62589977      22.09197328        0
Li       8.52464013      15.65269208      14.07523295        0
Li       6.78001871      16.64200294      27.87486356        0
Li      48.00401368      27.29863929      11.92837005        0
Li      10.61320549      20.16259457      11.72368645        0
Li      15.03198650      32.13120513      15.77485139        0
Li      14.38699376      51.09008031       8.76414463        0
Li       6.00839543      21.54689282      24.20395052        0
Li      20.44939905      21.53741128      17.17153820        0
Li      47.68419182      15.23978086      26.88408047        0
Li       7.75331832      22.08090998      12.04975032        0
Li       2.28300579      20.83915451      17.95476612        0
Li      17.19388666      17.72875400      26.79410915        0
Li      12.83873135       1.62896155      16.85341689        0
Li      25.05250005      18.74680216      23.36712694        0
Li      23.28149541       8.23840675      13.13446583        0
Li      12.40651892      10.80548458      15.45988047        0
Li      14.02318239      11.80465265      21.93498997        0
Li      51.54893714      46.62734113      22.38010554        0
Li      14.17305304       1.11162097      10.45199804        0
Li       6.00960700      17.78395581      22.20459279        0
Li      21.99057808       5.71298411      18.46538167        0
Li       4.70478868       8.97104164      18.62655633        0
Li      11.56815622       4.20884539      18.57889650        0
Li       4.03132447       7.63672148       8.51501868        0
Li       7.46672840      10.46445161      18.51563960        0
Li       5.14052208       7.17265197      22.81193262        0
Li       7.76547841      50.28685706      23.88729093        0
Li      51.68369898      10.91968804      15.50700758        0
Li       5.75147160      15.86180691      20.66116435        0
Li      27.18601003      23.70138079       0.86139139        0
Li      29.93538089       7.49494936       7.53507422        0
Li      18.57588816      23.79275691      12.37880658        0
Li       5.73029040      14.24746891       2.47806697        0
Li       4.01753817      32.17454766      11.37558762        0
Li      44.89097903      27.29977610       2.34130660        0
Li       6.75430364      16.29357451       8.25018515        0
Li      27.04371469      21.76983508       2.14214172        0
Li      13.94546285      51.02633477      21.84649172        0
Li       8.96980963      26.98278588      11.84062999        0
Li      16.73879880      20.38359052       8.17913798        0
Li       0.73654956      14.95180201      10.52380274        0
Li       5.02523893      23.89838474      51.52873743        0
Li       7.57607834      20.66830434       4.14713813        0
Li       5.65541164      21.41165730      10.52888816        0
Li      14.04075061       1.77193097      49.94769724        0
Li      24.56697019       6.28816681      10.23949809        0
Li      17.07275423       7.78430322      20.73821944        0
Li       5.62679130       1.44733612       2.39579586        0
Li       9.79437767       8.16596160      13.13268001        0
Li      24.81157169       4.22462585       5.75707953        0
Li       6.97446145       3.41516980       1.40840248        0
Li       0.90282033       8.45938002      15.31552824        0
Li      21.37905451       9.10348443      12.36022601        0
Li       5.64421863       5.63861491       9.01121932        0
Li      11.65389334       9.04125765       0.62948701        0
Li      23.85140295       5.86590929      21.35565136        0
Li      15.62891146      13.89957807       8.10726177        0
Li      30.47030067      11.24438918      51.71634225        0
Li      15.50403000       1.36095145       8.02071772        0
Li      11.91215737      10.78672100      20.84475390        0
Li      18.78715435      10.44401599      12.17624475        0
Li       6.92343522      17.32160080      15.06382997        0
Li      12.02556530      17.28588937      18.72230507        0
Li       1.43324004      13.02054882      23.05566155        0
Li      14.53857171       6.52474162      16.61287860        0
Li      21.11262755       9.17728231      51.29705015        0
Li      13.04511859      16.29572098      24.64557956        0
Li      26.07463520       9.94016592      21.56887857        0
Li      20.70642772      11.05563461      10.78325457        0
Li      51.66151715       2.03016584      17.19415188        0
Li      26.11340740       9.78903266      27.89814733        0
Li       3.44385425      11.38173405      12.68664616        0
Li      11.04815657      49.99516834      20.44200065        0
Li      20.68208512       7.12491645      17.24721518        0
Li       9.76655553       4.94826272      19.64848378        0
Li      21.55234848       2.03830524      14.07995176        0
Li       8.50260940      23.94899376      18.70333449        0
Li      12.11312396      20.69158279      22.20151473        0
Li       4.60660822      21.82534197       5.70997206        0
Li      14.17267605       8.81933952      20.71832157        0
Li      25.50321403      15.09140873      17.46182786        0
Li      11.55268458      12.96534509      15.87672932        0
Li      16.61332957      14.93435070      19.46008753        0
Li      17.51252585      23.78707024      25.57147490        0
Li       4.63724154      10.57140421      25.32834410        0
Li      17.27941961      12.48048896      14.84580824        0
Li       4.58774496      17.27820285      14.04083162        0
Li      21.11873181      22.21807240      12.25469996        0
Li      18.96498836      24.76596423      17.34648860        0
Li      14.09023043      15.96699274      18.55391211        0
Li      23.54264844      14.12673004      27.93726148        0
Li      23.72319984      20.79668116      12.18786132        0
Li      22.14704491      14.28878398      25.32028592        0
Li       4.98982767      15.18790680       7.23964016        0
Li      16.28005479      17.95924778       0.35935060        0
Li      27.13096443      11.82278505       9.05535901        0
Li      24.71466519       2.37336491      51.26152645        0
Li      27.13505268      10.38882678      14.42108331        0
Li      21.36868480       6.62204722       3.48397377        0
Li      14.16012015       4.87137121       4.18820264        0
Li      11.30729056      13.74713760       2.27047089        0
Li      49.89303064      13.76426463      27.68629524        0
Li      16.23736201      18.05368253      13.10654700        0
Li       5.65312870       9.07563825       5.38208961        0
Li      18.44309764       6.24896853       9.72537150        0
Li       2.23655649      10.80454263       0.50792415        0
Li      20.61706395       8.58069659       3.80244989        0
Li      17.51510559       7.53394604       7.98919766        0
Li      49.92541346      18.61220482       8.20212114        0
Li      11.50484237      17.24537429       5.44125918        0
Li       3.73028729      14.89511908      19.77893873        0
Li      24.75641372      17.06561338       5.64886056        0
Li      17.53939748      27.01894191       4.95093676        0
Li      14.59298390      15.54757271       5.73315741        0
Li      20.71053475      15.84968367       1.14846259        0
Li      24.87288272      20.59271700      22.17280241        0
Li       3.96457073      18.90636251      11.52591694        0
Li      17.70169916      21.59338823       5.74740113        0
Li       0.03844173      23.32093198       2.05741819        0
Li      14.95399683      17.16596532      25.50332238        0
Li      15.10597218      21.84341487       7.40663019        0
Li      20.70938790      17.26363883       7.58358903        0
Li      13.89393459       8.74261222      15.43770580        0
Li      16.77677379      25.31415126       1.13939586        0
Li      17.64060377       2.55331913       7.21317414        0
Li       5.55060608       1.30424957      15.36731909        0
Li      15.51378951      47.64301523      19.85936708        0
Li       7.78972165      30.26492070      20.88933865        0
Li       2.68969322       0.89617704       8.26165750        0
Li      15.10982763       7.70135242       4.12341648        0
Li      50.13036194      12.08871046      17.91954657        0
Li       8.58190071       5.94730597      17.82389464        0
Li      11.64032513      26.26067551      16.29882189        0
Li      50.95781939      15.39440786      12.02643581        0
Li      21.68458370      51.09530796      21.06568233        0
Li       2.02033023      50.32838113      13.65758750        0
Li      50.07236153       5.54120581      21.36679017        0
Li       9.36606575      18.37441509      18.54514859        0
Li       5.43366457      11.70705041      17.54119162        0
Li       8.68071606       7.59801725      15.28333220        0
Li       4.07039349       7.89183790      20.39049754        0
Li      10.64693843       7.59677148      23.75884381        0
Li      12.11044389       5.08138636      10.55594083        0
Li      17.58184460       4.42653227      13.92255384        0
Li       5.34164054      24.95523778      17.15839092        0
Li       1.65617200      13.97230523      20.81903250        0
Li       7.43327082      14.28989805       9.34711967        0
Li       8.66098452      20.78786285      27.70207713        0
Li       5.38296739       2.63097591      20.18077870        0
Li      14.39351264      10.94436853      14.30922008        0
Li      47.04825326       8.64191365      12.23176795        0
Li      10.94842857       0.72222259       1.40231281        0
Li       3.91248692      25.04353019      13.87173005        0
Li       1.51150099      10.41833986      13.89303744        0
Li       8.72816788      13.91924084      24.01200890        0
Li      50.51071212      28.25933790      12.02990840        0
Li      30.99641749      22.07881901      18.62606321        0
Li       2.24438036       6.78019970       4.34812215        0
Li       4.73442160       4.20561554       0.96756755        0
Li      31.07767222      22.06241370       5.54930810        0
Li       2.66593895       0.76074561      47.32323584        0
Li      10.63845981       7.30993431      11.01180687        0
Li      51.35100508       8.56200423       8.71995082        0
Li      13.07320960       3.51932669      11.55290244        0
Li      10.58867799      20.51943650      50.86978692        0
Li       6.79530478      49.31361320      11.33320012        0
Li      18.91145043       4.18435454       8.67078893        0
Li       5.83647454      24.41302077       4.06525681        0
Li       2.32583978       4.07855044      12.61044575        0
Li      10.14606811      14.70637066       0.03926324        0
Li       6.42194247       3.51041192       8.23725740        0
Li      10.95552388       0.82253666      15.16522931        0
Li       0.40709968      16.34903968       4.93010031        0
Li      11.67832941      10.77809912       7.80773960        0
Li      10.82564629       2.12470140      12.55112659        0
Li      21.42379643       2.52964922       0.82900310        0
Li      20.39261391      17.78013319       2.33086770        0
Li       5.53832073       8.56813639      10.67671444        0
Li       7.98516712      15.31367340       0.95387689        0
Li      50.27562745      23.76753115       7.69329850        0
Li       8.34522348      49.72211153       5.50387532        0
Li      18.16817604       4.17057063       1.13305839        0
Li       2.71270135       5.95112952       1.28056432        0
Li      14.88901875       4.29108145      25.73516469        0
Li       7.20613961      23.04318784       5.08484930        0
Li       7.51013941      25.01870542      10.88302613        0
Li       7.67191133      11.70894738      10.47665296        0
Li      48.74686853      20.56010434       1.05659926        0
Li       8.99001085      12.34775931       8.35379752        0
Li      18.63124035      12.04872289      17.40029365        0
Li      30.18304837      18.33638858      11.62734055        0
Li      15.30925150      12.37378685      23.97379475        0
Li      18.32254056      16.99914301      13.69113654        0
Li      19.82831006      22.68041997       4.82954230        0
Li      12.09075985      24.04360338      15.51300630        0
Li      21.94670163      18.68997713      18.29540514        0
Li      24.21444642      10.77125536      20.29106999        0
Li      18.78851850      17.78744806       8.82560765        0
Li       7.24787359      14.60446056      22.49607573        0
Li      17.56951777      12.41453101       1.66723008        0
Li      17.38858204      18.47901173      50.68332842        0
Li      27.39501955      21.91020922       7.52468469        0
Li      15.61481146      19.04270827      14.88960970        0
Li      18.99064122      15.24805094      15.34928697        0
Li      13.89584977      17.27586487      12.10972063        0
Li      24.42931249      22.34312961      26.84359848        0
Li      27.28398837      21.66182288      15.40228325        0
Li       9.08173914      19.02821417       4.25258588        0
Li      14.30044012       2.41093370      18.85140716        0
Li      20.22368530      50.14126870      11.00285105        0
Li      12.63039445      10.91002869       2.19138942        0
Li      21.24141023      17.34870754      20.38863670        0
Li      14.62394092      23.77194482      14.35059400        0
Li      24.37114354      19.45700437      10.13903944        0
Li      19.91744752      11.04842584      24.18438249        0
Li      16.55076568       1.24892321      18.35823970        0
Li      23.48736052       1.00189599       1.27423480        0
Li      12.58489884      15.12032276       4.21649841        0
Li      14.16403270      18.03222998      17.13974575        0
Li      16.42765687      11.67135668      51.85272244        0
Li      24.22184169      12.10198908       5.09356381        0
Li      21.09589959      19.63131393      16.44917752        0
Li      10.87927394      25.26274664       5.09469795        0
Li      21.08015566      10.47307404       5.37541780        0
Li      10.91981252      18.59059685      20.67589495        0
Li       7.70245090       9.39025429      11.96748981        0
Li      17.40889552      19.14503069      10.43300767        0
Li       5.93831058      16.59666508       1.26469261        0
Li      17.47693046       0.93018295       4.69122794        0
Li      20.36708525      50.27073362      23.91258285        0
Li       9.31293948      26.78602868      51.09257803        0
Li      21.80568447      14.12360939      11.86711984        0
Li      18.79800609      50.80837760       4.26034395        0
Li      26.06873675       3.26027802      18.10409305        0
Li       3.59431834      27.84612628       6.22228679        0
Li      13.95615754      27.90161639      24.07012501        0
Li       2.03822820      16.99019010      11.90447821        0
Li      48.76539313      24.68791408      20.34691948        0
Li      10.83158679      20.69194287      24.06653971        0
Li      26.68178254      22.34814780      20.95090574        0
Li       6.27419565       3.38667958      27.77251666        0
Li      16.21253415      31.18350151      13.27240030        0
Li       2.92813320      20.33806072       5.18626266        0
Li      11.60426747      20.48301156       9.81047687        0
Li       4.55725765      19.76402817      22.37626026        0
Li       6.75285909       8.16232117      17.26296501        0
Li      27.36478370      14.70356744      23.96065274        0
Li      18.50327446       8.93539126       5.75449108        0
Li      11.83280965       8.97792902      14.03901814        0
Li      10.98024832       5.79090708      21.63540552        0
Li       3.20673411       1.45433460      19.66959941        0
Li      12.19286998      50.71778039      15.51292702        0
Li       5.92238097      11.00277995       4.20785603        0
Li      18.08845901       6.68566712      23.08347695        0
Li      14.24198688      10.99017427       9.05323478        0
Li       7.54449161       5.60739571      15.55738040        0
Li      22.42198839       5.38957975       5.59762885        0
Li       2.49018432      51.25518731      10.93183848        0
Li       8.75153340       1.93772649       0.96066957        0
Li      51.22641647       8.86479562      14.15933424        0
Li       8.21451736      26.01346613      23.14185171        0
Li      13.21025210      22.54065492       8.19275255        0
Li       6.93763216      22.48421634      17.64820016        0
Li       2.18654342      21.89073593       7.22421958        0
Li      13.78772122      17.87230415       4.30098188        0
Li      20.24787800      24.28127075      10.92408323        0
Li      17.52555215      23.99957666      51.50389202        0
Li       1.11204214      17.69258311      17.26860576        0
Li      11.97735994      25.18990339      28.55424120        0
Li       4.45157617      20.75760496       8.00947252        0
Li      14.03677113       8.72352606       7.68305889        0
Li      27.72012578       4.26554724      12.80652113        0
Li      12.08730918       8.59943028      22.05448808        0
Li       3.33433191       8.16521966       6.19467740        0
Li       7.84690771      10.29140460       5.49185172        0
Li       1.09595167      51.04927818       8.84548389        0
Li       5.65819086      10.64109662      11.72060458        0
Li      18.99870283       8.25502915      10.87673380        0
Li       6.67099745       9.90215306      50.81050508        0
Li      23.71749949       7.81613988      51.48766057        0
Li      27.18480696      12.26801468      22.50909851        0
Li       5.07334280      51.69233061       3.23671612        0
Li      13.35475107      48.94244792       8.19883415        0
Li       0.96566732      10.25105955      27.11001930        0
Li       6.04060124      15.18808193      15.20424104        0
Li       8.76853394      14.28298267      11.53770330        0
Li      22.15654253       7.69081192       1.21955338        0
Li       0.54098732      11.21471894       9.02829569        0
Li      18.83339801      18.39719595      22.28578894        0
Li      15.20645656       5.69159017      14.47391523        0
Li      21.63478735      15.40393192      13.69862292        0
Li      18.21204398      27.13547451      28.69744952        0
Li       2.58868785      14.71752089       6.01144188        0
Li      16.59193611      14.67507673       6.54293388        0
Li      19.44135092       9.68849291      17.89346695        0
Li       3.93237384      12.12838199      27.68799375        0
Li      20.39869015       5.00894930       2.23807802        0
Li      25.98136496      16.76890942      11.41303495        0
Li       1.20499457      22.11731509      20.33547923        0
Li       0.37512427       3.51348122      11.36687297        0
Li       1.30685533       8.77505520      20.26700927        0
Li       9.41562687      51.36006324      20.57647460        0
Li       8.95182989      20.74707787      14.76473816        0
Li       4.28161433      12.46399586      15.15304095        0
Li       0.14668752       3.31338582      50.75272751        0
Li       8.66672910       3.72559598       7.13777088        0
Li       5.70311365       4.71100330      22.10404524        0
Li       8.72890585       2.41171331      13.86124975        0
Li       8.12782362       8.91901685      25.34784947        0
Li       0.47111520       4.37932695      17.24113551        0
Li       6.56250012      29.71650775       1.35939410        0
Li       4.26201067       5.77642181      24.70255587        0
Li      11.17864540       4.36539249       5.56251496        0
Li       3.44389733      27.22978910      17.93497275        0
Li       4.55589597       5.30480833      11.51448315        0
Li      12.32498144      50.78315347       2.32226624        0
Li       1.52559671       6.46221324      16.36072049        0
Li      14.11253671      21.22501253      15.77245457        0
Li      51.29183932      17.15237337      18.34117374        0
Li      12.26646741       5.54957275      23.64919856        0
Li      28.00770925      20.03807100      16.50687371        0
Li       9.23909619      25.17354742      20.62392834        0
Li      44.84985657      10.10600693      12.26004426        0
Li      13.41905469      15.09512204      10.65356010        0
Li      12.28557614      18.26781708      23.82844131        0
Li      15.27029568       7.71911492      18.61077362        0
Li       7.79506183       5.51086754      28.40212715        0
Li      24.66743590      23.72035907      20.95682241        0
Li      20.98472100      23.52644729      18.93771617        0
Li      17.35368994      20.11098339      21.95299729        0
Li       7.92330525      17.12733402      20.59238449        0
Li      23.78111437      20.61123469      24.32109996        0
Li      24.96535893      21.89624122      14.29884609        0
Li      10.75403498      14.43181243      14.30155051        0
Li      52.28342102       3.41353069      24.36401992        0
Li       7.63452454       4.22993705      20.41050398        0
Li      11.92977123      14.62236008      17.41248083        0
Li      20.49677904       7.96769234      30.50006728        0
Li       3.57797819      21.02628391      20.15276741        0
Li      17.42310736      25.40491734      15.20833534        0
Li       1.97774011      13.62037160       8.42140402        0
Li      21.50921045       4.17853485      20.67751444        0
Li      26.38134448       3.28490412      24.52844486        0
Li      10.91184335      12.38299075      17.96293615        0
Li       0.47486899      10.94995597      21.75195077        0
Li      18.71230446      11.26498389       4.20953813        0
Li       0.85063098      18.64674844       4.25804024        0
Li       9.85561793      11.69881683       6.29681568        0
Li      11.67842368      23.77283875       7.52657176        0
Li       4.78817689      13.52438784       4.54955451        0
Li       4.79354964      19.42364408       9.85940985        0
Li      17.16061630       5.73280623      50.03643439        0
Li       0.55692893      23.05057631      47.70023474        0
Li      15.66248176      20.38103764       5.13549492        0
Li      22.14095807      20.67542956      14.43875168        0
Li       9.80981257      18.19385360       6.67600244        0
Li      23.80825140      25.03499329       4.85136503        0
Li       3.20284362      17.83579096       0.22671006        0
Li      21.91458692       0.86725946      11.84934572        0
Li      10.46085789       5.75532566       8.25249025        0
Li      19.89322057      48.70392436       4.85522454        0
Li      25.55662398       4.09694086      11.28517548        0
Li       9.03856768      20.70935206       1.47595683        0
Li       7.65882908      24.07804569      50.20638037        0
Li      34.66966783      11.24152380      18.64190435        0
Li      13.14551703       3.00673929       4.78800810        0
Li      47.28409248      26.30224223       9.65671746        0
Li      11.52230970      11.93727461       4.65571923        0
Li      12.39633088      22.34888769      14.25694856        0
Li       2.37415772       7.50876050      18.38963761        0
Li       4.45593524      17.45559969      26.86703416        0
Li      17.28331245       6.22928533      11.43875319        0
Li       4.69800627      45.21968583      24.32437943        0
Li       9.16640925       0.66477901      11.22279800        0
Li       9.62664241      11.44204525      19.74118598        0
Li      15.24023840       0.90650856      21.12694792        0
Li      15.32945250       2.17709823       5.63837276        0
Li       4.35116932       2.00401075       7.45706084        0
Li       2.21138785       4.08406710      51.40378535        0
Li       7.67113054       7.79864354       4.28084636        0
La       8.13723674       6.30285788       9.72393328        1
La      18.02501161      19.84077540      16.41879314        1
La      24.53146959      19.69972651      16.50381978        1
La      14.64329629       6.67174289      22.73668628        1
La      22.95193611      18.17569654      13.19033892        1
La      16.37296400      21.03677609      52.13658944        1
La       9.84192527      21.17987791      19.65350502        1
La       3.26469283      17.89943453      19.63730431        1
La      24.61005872       6.59993340      16.43496614        1
La      14.66805465      19.48749559       9.77116677        1
La       8.14710743      19.68013042      23.04453701        1
La      17.72883569       6.61390513      16.35800149        1
La      10.16194585      17.94902397       0.10975103        1
La       3.24797628      21.25587271      13.04898069        1
La      22.76224248      21.13907540      19.86179663        1
La      16.19690147      18.23342754      19.68082460        1
La      14.73412102      13.45972095      16.67874824        1
La      24.46705859      52.25964903      22.83930365        1
La      18.03615290      26.07056203      10.03232933        1
La       8.06834850      13.14031232      16.53814467        1
La       3.26314690      11.53163261      19.86724929        1