 # Voronoi polycrystal with 3 grains
 
        4975  atoms
           1  atom types
 
      0.000000000000     200.000000000000  xlo xhi
      0.000000000000      20.000000000000  ylo yhi
      0.000000000000      20.000000000000  zlo zhi
 
Masses
 
            1   63.54600000             # Cu
 
Atoms # atomic
 
         1    1      185.069313464155      10.920054426929      15.690069872438
         2    1      189.535452561916      10.466820741381      15.960219434235
         3    1      187.039192642214       8.859250952755      17.098993243201
         4    1      194.001591659676      10.013587055832      16.230368996031
         5    1      191.505331739975       8.406017267206      17.369142804997
         6    1      198.467730757437       9.560353370284      16.500518557827
         7    1        5.430129774899      10.714689473361      15.631894310657
         8    1        2.933869855198       9.107119684735      16.770668119623
         9    1        9.896268872660      10.261455787813      15.902043872453
        10    1        7.400008952958       8.653885999187      17.040817681419
        11    1       14.362407970420       9.808222102264      16.172193434249
        12    1      185.621432060040      16.399838304562      15.755900796123
        13    1      183.125172140339      14.792268515936      16.894674605089
        14    1      190.087571157801      15.946604619014      16.026050357919
        15    1      187.591311238099      14.339034830388      17.164824166885
        16    1      185.345372762098      13.659946365746      15.722985334281
        17    1      185.095051318397      12.731465041762      18.303597975852
        18    1      194.553710255562      15.493370933465      16.296199919715
        19    1      192.057450335860      13.885801144839      17.434973728681
        20    1      189.811511859858      13.206712680197      15.993134896077
        21    1      189.561190416158      12.278231356213      18.573747537648
        22    1      187.315251940157      11.599142891571      17.131908705043
        23    1      187.064930496456      10.670661567587      19.712521346614
        24    1      184.818992020455       9.991573102945      18.270682514009
        25    1      184.568670576754       9.063091778961       0.851295155581
        26    1      199.019849353322      15.040137247917      16.566349481511
        27    1      196.523589433620      13.432567459291      17.705123290478
        28    1      194.277650957619      12.753478994649      16.263284457873
        29    1      194.027329513919      11.824997670665      18.843897099444
        30    1      191.781391037917      11.145909206023      17.402058266839
        31    1      191.531069594217      10.217427882039      19.982670908410
        32    1      189.285131118216       9.538339417397      18.540832075806
        33    1      189.034809674515       8.609858093413       1.121444717377
        34    1        5.982248370784      16.194473350994      15.697725234341
        35    1        3.485988451083      14.586903562368      16.836499043307
        36    1        0.989728531381      12.979333773742      17.975272852274
        37    1      198.743790055380      12.300245309100      16.533434019669
        38    1      198.493468611679      11.371763985116      19.114046661240
        39    1      196.247530135678      10.692675520474      17.672207828635
        40    1      195.997208691977       9.764194196490       0.252820470207
        41    1      193.751270215976       9.085105731848      18.810981637602
        42    1       10.448387468545      15.741239665445      15.967874796137
        43    1        7.952127548843      14.133669876820      17.106648605104
        44    1        5.706189072842      13.454581412178      15.664809772499
        45    1        5.455867629141      12.526100088194      18.245422414070
        46    1        3.209929153140      11.847011623552      16.803583581465
        47    1        2.959607709440      10.918530299568      19.384196223036
        48    1        0.713669233438      10.239441834926      17.942357390432
        49    1        0.463347789738       9.310960510942       0.522970032003
        50    1      198.217409313737       8.631872046300      19.081131199398
        51    1       14.914526566305      15.288005979897      16.238024357933
        52    1       12.418266646604      13.680436191271      17.376798166900
        53    1       10.172328170602      13.001347726629      15.934959334295
        54    1        9.922006726902      12.072866402645      18.515571975866
        55    1        7.676068250901      11.393777938003      17.073733143261
        56    1        7.425746807200      10.465296614019      19.654345784833
        57    1        5.179808331199       9.786208149377      18.212506952228
        58    1        4.929486887498       8.857726825393       0.793119593799
        59    1       19.380665664066      14.834772294348      16.508173919730
        60    1       16.884405744364      13.227202505723      17.646947728696
        61    1       14.638467268363      12.548114041081      16.205108896091
        62    1       14.388145824663      11.619632717097      18.785721537662
        63    1       12.142207348661      10.940544252455      17.343882705058
        64    1       11.891885904961      10.012062928471      19.924495346629
        65    1        9.645947428959       9.332974463829      18.482656514024
        66    1        9.395625985259       8.404493139845       1.063269155595
        67    1       23.846804761827      14.381538608800      16.778323481526
        68    1       21.350544842125      12.773968820174      17.917097290492
        69    1       19.104606366124      12.094880355532      16.475258457887
        70    1       18.854284922423      11.166399031548      19.055871099459
        71    1       16.608346446422      10.487310566906      17.614032266854
        72    1       16.358025002721       9.558829242922       0.194644908425
        73    1       14.112086526720       8.879740778280      18.752806075820
        74    1      186.173550655925       1.879622182195      15.821731719807
        75    1      183.677290736224       0.272052393569      16.960505528774
        76    1      190.639689753686       1.426388496647      16.091881281603
        77    1      188.143429833984      19.818818708021      17.230655090570
        78    1      185.897491357983      19.139730243379      15.788816257965
        79    1      185.647169914283      18.211248919395      18.369428899536
        80    1      183.401231438281      17.532160454753      16.927590066931
        81    1      183.150909994581      16.603679130769      19.508202708503
        82    1      195.105828851447       0.973154811098      16.362030843400
        83    1      192.609568931745      19.365585022472      17.500804652366
        84    1      190.363630455743      18.686496557830      16.058965819761
        85    1      190.113309012043      17.758015233846      18.639578461332
        86    1      187.867370536042      17.078926769204      17.197739628728
        87    1      187.617049092341      16.150445445220      19.778352270299
        88    1      185.371110616340      15.471356980578      18.336513437694
        89    1      185.120789172640      14.542875656594       0.917126079265
        90    1      182.874850696638      13.863787191952      19.475287246660
        91    1      199.571967949207       0.519921125549      16.632180405196
        92    1      197.075708029505      18.912351336924      17.770954214162
        93    1      194.829769553504      18.233262872282      16.329115381557
        94    1      194.579448109804      17.304781548298      18.909728023129
        95    1      192.333509633802      16.625693083656      17.467889190524
        96    1      192.083188190102      15.697211759672       0.048501832095
        97    1      189.837249714101      15.018123295030      18.606662999490
        98    1      189.586928270400      14.089641971046       1.187275641061
        99    1      187.340989794399      13.410553506404      19.745436808456
       100    1      187.090668350698      12.482072182420       2.326049450028
       101    1      184.844729874697      11.802983717778       0.884210617423
       102    1      184.594408430997      10.874502393794       3.464823258994
       103    1        6.534366966669       1.674257228627      15.763556158026
       104    1        4.038107046968       0.066687440001      16.902329966992
       105    1        1.541847127266      18.459117651375      18.041103775958
       106    1      199.295908651265      17.780029186733      16.599264943354
       107    1      199.045587207564      16.851547862749      19.179877584925
       108    1      196.799648731563      16.172459398107      17.738038752320
       109    1      196.549327287862      15.243978074123       0.318651393891
       110    1      194.303388811861      14.564889609481      18.876812561286
       111    1      194.053067368161      13.636408285497       1.457425202857
       112    1      191.807128892159      12.957319820855       0.015586370253
       113    1      191.556807448459      12.028838496871       2.596199011824
       114    1      189.310868972458      11.349750032229       1.154360179219
       115    1      189.060547528757      10.421268708245       3.734972820790
       116    1      186.814609052756       9.742180243603       2.293133988185
       117    1      186.564287609055       8.813698919619       4.873746629757
       118    1       11.000506064430       1.221023543078      16.033705719822
       119    1        8.504246144728      19.613453754452      17.172479528788
       120    1        6.258307668727      18.934365289810      15.730640696183
       121    1        6.007986225026      18.005883965826      18.311253337754
       122    1        3.762047749025      17.326795501184      16.869414505150
       123    1        3.511726305325      16.398314177201      19.450027146721
       124    1        1.265787829323      15.719225712559      18.008188314116
       125    1        1.015466385623      14.790744388575       0.588800955687
       126    1      198.769527909622      14.111655923933      19.146962123082
       127    1      198.519206465921      13.183174599949       1.727574764654
       128    1      196.273267989920      12.504086135307       0.285735932049
       129    1      196.022946546219      11.575604811323       2.866348573620
       130    1      193.777008070218      10.896516346681       1.424509741015
       131    1      193.526686626518       9.968035022697       4.005122382586
       132    1      191.280748150516       9.288946558055       2.563283549982
       133    1      191.030426706816       8.360465234071       5.143896191553
       134    1       15.466645162191       0.767789857530      16.303855281618
       135    1       12.970385242489      19.160220068904      17.442629090584
       136    1       10.724446766487      18.481131604262      16.000790257979
       137    1       10.474125322787      17.552650280278      18.581402899551
       138    1        8.228186846786      16.873561815636      17.139564066946
       139    1        7.977865403085      15.945080491652      19.720176708517
       140    1        5.731926927084      15.265992027010      18.278337875912
       141    1        5.481605483384      14.337510703026       0.858950517483
       142    1        3.235667007382      13.658422238384      19.417111684879
       143    1        2.985345563682      12.729940914400       1.997724326450
       144    1        0.739407087680      12.050852449758       0.555885493845
       145    1        0.489085643980      11.122371125774       3.136498135416
       146    1      198.243147167979      10.443282661132       1.694659302811
       147    1      197.992825724278       9.514801337148       4.275271944382
       148    1      195.746887248277       8.835712872506       2.833433111778
       149    1       19.932784259951       0.314556171981      16.574004843414
       150    1       17.436524340249      18.706986383355      17.712778652381
       151    1       15.190585864248      18.027897918713      16.270939819776
       152    1       14.940264420548      17.099416594729      18.851552461347
       153    1       12.694325944546      16.420328130087      17.409713628742
       154    1       12.444004500846      15.491846806103      19.990326270313
       155    1       10.198066024844      14.812758341462      18.548487437708
       156    1        9.947744581144      13.884277017478       1.129100079280
       157    1        7.701806105143      13.205188552836      19.687261246675
       158    1        7.451484661442      12.276707228852       2.267873888246
       159    1        5.205546185441      11.597618764210       0.826035055641
       160    1        4.955224741741      10.669137440226       3.406647697212
       161    1        2.709286265739       9.990048975584       1.964808864607
       162    1        2.458964822039       9.061567651600       4.545421506179
       163    1        0.213026346037       8.382479186958       3.103582673574
       164    1       21.902663438010      18.253752697807      17.982928214177
       165    1       19.656724962009      17.574664233165      16.541089381572
       166    1       19.406403518308      16.646182909181      19.121702023143
       167    1       17.160465042307      15.967094444539      17.679863190538
       168    1       16.910143598606      15.038613120555       0.260475832109
       169    1       14.664205122605      14.359524655913      18.818636999505
       170    1       14.413883678905      13.431043331929       1.399249641076
       171    1       12.167945202903      12.751954867287      19.957410808471
       172    1       11.917623759203      11.823473543303       2.538023450042
       173    1        9.671685283202      11.144385078661       1.096184617437
       174    1        9.421363839501      10.215903754677       3.676797259008
       175    1        7.175425363500       9.536815290035       2.234958426404
       176    1        6.925103919799       8.608333966051       4.815571067975
       177    1       24.122864059769      17.121430547616      16.811238943368
       178    1       23.872542616069      16.192949223632      19.391851584939
       179    1       21.626604140067      15.513860758990      17.950012752334
       180    1       21.376282696367      14.585379435006       0.530625393906
       181    1       19.130344220366      13.906290970364      19.088786561301
       182    1       18.880022776665      12.977809646380       1.669399202872
       183    1       16.634084300664      12.298721181739       0.227560370267
       184    1       16.383762856963      11.370239857755       2.808173011838
       185    1       14.137824380962      10.691151393113       1.366334179233
       186    1       13.887502937262       9.762670069129       3.946946820805
       187    1       11.641564461260       9.083581604487       2.505107988200
       188    1       25.842421794127      14.132145749458       0.800774955702
       189    1       23.596483318126      13.453057284816      19.358936123097
       190    1       23.346161874426      12.524575960832       1.939548764668
       191    1       21.100223398424      11.845487496190       0.497709932063
       192    1       20.849901954724      10.917006172206       3.078322573634
       193    1       18.603963478723      10.237917707564       1.636483741030
       194    1       18.353642035022       9.309436383580       4.217096382601
       195    1       16.107703559021       8.630347918938       2.775257549996
       196    1      186.725669251811       7.359406059828      15.887562643492
       197    1      184.229409332109       5.751836271202      17.026336452458
       198    1      191.191808349571       6.906172374279      16.157712205288
       199    1      188.695548429869       5.298602585653      17.296486014254
       200    1      186.449609953868       4.619514121011      15.854647181650
       201    1      186.199288510168       3.691032797027      18.435259823221
       202    1      183.953350034166       3.011944332385      16.993420990616
       203    1      183.703028590466       2.083463008401      19.574033632187
       204    1      195.657947447332       6.452938688731      16.427861767084
       205    1      193.161687527630       4.845368900105      17.566635576050
       206    1      190.915749051629       4.166280435463      16.124796743446
       207    1      190.665427607928       3.237799111479      18.705409385017
       208    1      188.419489131927       2.558710646837      17.263570552412
       209    1      188.169167688226       1.630229322853      19.844183193983
       210    1      185.923229212225       0.951140858211      18.402344361378
       211    1      185.672907768525       0.022659534227       0.982957002950
       212    1      183.426969292523      19.343571069585      19.541118170345
       213    1      183.176647848823      18.415089745601       2.121730811916
       214    1        0.124086545092       5.999705003182      16.698011328880
       215    1      197.627826625390       4.392135214556      17.836785137847
       216    1      195.381888149389       3.713046749914      16.394946305242
       217    1      195.131566705689       2.784565425930      18.975558946813
       218    1      192.885628229687       2.105476961288      17.533720114208
       219    1      192.635306785987       1.176995637304       0.114332755779
       220    1      190.389368309986       0.497907172663      18.672493923175
       221    1      190.139046866285      19.569425848679       1.253106564746
       222    1      187.893108390284      18.890337384037      19.811267732141
       223    1      187.642786946583      17.961856060053       2.391880373712
       224    1      185.396848470582      17.282767595411       0.950041541107
       225    1      185.146527026882      16.354286271427       3.530654182678
       226    1      182.900588550880      15.675197806785       2.088815350074
       227    1        7.086485562554       7.154041106260      15.829387081710
       228    1        4.590225642853       5.546471317634      16.968160890676
       229    1        2.093965723151       3.938901529008      18.106934699643
       230    1      199.848027247150       3.259813064366      16.665095867038
       231    1      199.597705803449       2.331331740382      19.245708508609
       232    1      197.351767327448       1.652243275740      17.803869676004
       233    1      197.101445883747       0.723761951756       0.384482317575
       234    1      194.855507407746       0.044673487114      18.942643484971
       235    1      194.605185964046      19.116192163130       1.523256126542
       236    1      192.359247488044      18.437103698488       0.081417293937
       237    1      192.108926044344      17.508622374504       2.662029935508
       238    1      189.862987568343      16.829533909862       1.220191102903
       239    1      189.612666124642      15.901052585878       3.800803744475
       240    1      187.366727648641      15.221964121236       2.358964911870
       241    1      187.116406204940      14.293482797252       4.939577553441
       242    1      184.870467728939      13.614394332610       3.497738720836
       243    1      184.620146285239      12.685913008626       6.078351362407
       244    1       11.552624660315       6.700807420711      16.099536643506
       245    1        9.056364740613       5.093237632085      17.238310452473
       246    1        6.810426264612       4.414149167443      15.796471619868
       247    1        6.560104820912       3.485667843459      18.377084261439
       248    1        4.314166344910       2.806579378817      16.935245428834
       249    1        4.063844901210       1.878098054833      19.515858070405
       250    1        1.817906425208       1.199009590191      18.074019237801
       251    1        1.567584981508       0.270528266207       0.654631879372
       252    1      199.321646505507      19.591439801565      19.212793046767
       253    1      199.071325061806      18.662958477581       1.793405688338
       254    1      196.825386585805      17.983870012940       0.351566855733
       255    1      196.575065142105      17.055388688956       2.932179497304
       256    1      194.329126666103      16.376300224314       1.490340664700
       257    1      194.078805222403      15.447818900330       4.070953306271
       258    1      191.832866746401      14.768730435688       2.629114473666
       259    1      191.582545302701      13.840249111704       5.209727115237
       260    1      189.336606826700      13.161160647062       3.767888282632
       261    1      189.086285382999      12.232679323078       6.348500924203
       262    1      186.840346906998      11.553590858436       4.906662091599
       263    1      186.590025463298      10.625109534452       7.487274733170
       264    1      184.344086987296       9.946021069810       6.045435900565
       265    1      184.093765543596       9.017539745826       8.626048542136
       266    1       16.018763758076       6.247573735163      16.369686205302
       267    1       13.522503838374       4.640003946537      17.508460014269
       268    1       11.276565362373       3.960915481895      16.066621181664
       269    1       11.026243918672       3.032434157911      18.647233823235
       270    1        8.780305442671       2.353345693269      17.205394990630
       271    1        8.529983998970       1.424864369285      19.786007632202
       272    1        6.284045522969       0.745775904643      18.344168799597
       273    1        6.033724079269      19.817294580659       0.924781441168
       274    1        3.787785603267      19.138206116017      19.482942608563
       275    1        3.537464159567      18.209724792033       2.063555250134
       276    1        1.291525683566      17.530636327391       0.621716417529
       277    1        1.041204239865      16.602155003407       3.202329059101
       278    1      198.795265763864      15.923066538765       1.760490226496
       279    1      198.544944320163      14.994585214781       4.341102868067
       280    1      196.299005844162      14.315496750139       2.899264035462
       281    1      196.048684400462      13.387015426155       5.479876677033
       282    1      193.802745924460      12.707926961513       4.038037844429
       283    1      193.552424480760      11.779445637529       6.618650486000
       284    1      191.306486004759      11.100357172887       5.176811653395
       285    1      191.056164561058      10.171875848903       7.757424294966
       286    1      188.810226085057       9.492787384261       6.315585462361
       287    1      188.559904641356       8.564306060277       8.896198103932
       288    1       17.988642936134       4.186770260988      17.778609576065
       289    1       15.742704460133       3.507681796346      16.336770743460
       290    1       15.492383016433       2.579200472362      18.917383385031
       291    1       13.246444540431       1.900112007720      17.475544552427
       292    1       12.996123096731       0.971630683736       0.056157193998
       293    1       10.750184620730       0.292542219094      18.614318361393
       294    1       10.499863177029      19.364060895110       1.194931002964
       295    1        8.253924701028      18.684972430468      19.753092170359
       296    1        8.003603257327      17.756491106484       2.333704811930
       297    1        5.757664781326      17.077402641842       0.891865979326
       298    1        5.507343337626      16.148921317858       3.472478620897
       299    1        3.261404861624      15.469832853217       2.030639788292
       300    1        3.011083417924      14.541351529233       4.611252429863
       301    1        0.765144941923      13.862263064591       3.169413597258
       302    1        0.514823498222      12.933781740607       5.750026238829
       303    1      198.268885022221      12.254693275965       4.308187406225
       304    1      198.018563578520      11.326211951981       6.888800047796
       305    1      195.772625102519      10.647123487339       5.446961215191
       306    1      195.522303658819       9.718642163355       8.027573856762
       307    1      193.276365182817       9.039553698713       6.585735024157
       308    1       20.208843557894       3.054448110798      16.606920305256
       309    1       19.958522114193       2.125966786814      19.187532946827
       310    1       17.712583638192       1.446878322172      17.745694114223
       311    1       17.462262194491       0.518396998188       0.326306755794
       312    1       15.216323718490      19.839308533546      18.884467923189
       313    1       14.966002274790      18.910827209562       1.465080564760
       314    1       12.720063798788      18.231738744920       0.023241732155
       315    1       12.469742355088      17.303257420936       2.603854373727
       316    1       10.223803879087      16.624168956294       1.162015541122
       317    1        9.973482435386      15.695687632310       3.742628182693
       318    1        7.727543959385      15.016599167668       2.300789350088
       319    1        7.477222515684      14.088117843684       4.881401991659
       320    1        5.231284039683      13.409029379042       3.439563159055
       321    1        4.980962595983      12.480548055058       6.020175800626
       322    1        2.735024119981      11.801459590416       4.578336968021
       323    1        2.484702676281      10.872978266432       7.158949609592
       324    1        0.238764200280      10.193889801790       5.717110776987
       325    1      199.988442756579       9.265408477806       8.297723418558
       326    1      197.742504280578       8.586320013164       6.855884585954
       327    1       22.178722735952       0.993644636623      18.015843676019
       328    1       21.928401292252       0.065163312639       0.596456317590
       329    1       19.682462816251      19.386074847997      19.154617484985
       330    1       19.432141372550      18.457593524013       1.735230126556
       331    1       17.186202896549      17.778505059371       0.293391293952
       332    1       16.935881452849      16.850023735387       2.874003935523
       333    1       14.689942976847      16.170935270745       1.432165102918
       334    1       14.439621533147      15.242453946761       4.012777744489
       335    1       12.193683057145      14.563365482119       2.570938911884
       336    1       11.943361613445      13.634884158136       5.151551553455
       337    1        9.697423137444      12.955795693494       3.709712720851
       338    1        9.447101693743      12.027314369510       6.290325362422
       339    1        7.201163217742      11.348225904868       4.848486529817
       340    1        6.950841774042      10.419744580884       7.429099171388
       341    1        4.704903298040       9.740656116242       5.987260338783
       342    1        4.454581854340       8.812174792258       8.567872980354
       343    1       24.148601914011      18.932841162449      19.424767046781
       344    1       23.898280470311      18.004359838465       2.005379688352
       345    1       21.652341994309      17.325271373823       0.563540855748
       346    1       21.402020550609      16.396790049839       3.144153497319
       347    1       19.156082074608      15.717701585197       1.702314664714
       348    1       18.905760630907      14.789220261213       4.282927306285
       349    1       16.659822154906      14.110131796571       2.841088473680
       350    1       16.409500711206      13.181650472587       5.421701115252
       351    1       14.163562235204      12.502562007945       3.979862282647
       352    1       13.913240791504      11.574080683961       6.560474924218
       353    1       11.667302315502      10.894992219319       5.118636091613
       354    1       11.416980871802       9.966510895335       7.699248733184
       355    1        9.171042395801       9.287422430693       6.257409900580
       356    1        8.920720952100       8.358941106709       8.838022542151
       357    1       26.118481092070      16.872037688274       0.833690417544
       358    1       25.868159648370      15.943556364290       3.414303059115
       359    1       23.622221172368      15.264467899648       1.972464226510
       360    1       23.371899728668      14.335986575664       4.553076868081
       361    1       21.125961252667      13.656898111022       3.111238035477
       362    1       20.875639808966      12.728416787038       5.691850677048
       363    1       18.629701332965      12.049328322396       4.250011844443
       364    1       18.379379889264      11.120846998413       6.830624486014
       365    1       16.133441413263      10.441758533771       5.388785653409
       366    1       15.883119969563       9.513277209787       7.969398294980
       367    1       13.637181493561       8.834188745145       6.527559462376
       368    1       27.838038826428      13.882752890116       4.823226429878
       369    1       25.592100350427      13.203664425474       3.381387597273
       370    1       25.341778906727      12.275183101490       5.962000238844
       371    1       23.095840430725      11.596094636848       4.520161406239