648
Time=110000.00000168 pbc="T T T" Lattice="18.20792951 0.00000000 0.00000000 0.00000000 18.20792951 0.00000000 0.00000000 0.00000000 18.20792951" energy=-51.34712100 virial="-19.40853060 0.56801696 -14.52775131 0.56801696 -16.86151733 1.04180224 -14.52775131 1.04180224 -2.02359534" stress="-0.00045689 0.00009404 -0.00240517 0.00009404 -0.00003522 0.00017248 -0.00240517 0.00017248 0.00242131" Properties=species:S:1:pos:R:3
O 0.25490367 0.27765663 14.56649892
O 18.12537508 3.78850629 9.56043888
O 16.36855215 14.01176070 4.69981827
O 13.62940434 2.95964882 15.71543276
O 5.72797081 15.79552663 11.72529717
O 2.86368281 16.25875840 12.46124780
O 16.29241725 10.12093979 14.89020797
O 3.39064352 5.68819307 4.32317460
O 11.84896963 3.95846173 2.31177734
O 13.68672689 2.70757368 0.12453757
O 6.44751488 3.63637166 12.34509332
O 3.05382821 12.75960154 2.43712746
O 10.49750877 2.03679638 16.87511523
O 16.08203708 0.69845242 17.42220690
O 10.72750684 1.38240785 8.07351699
O 1.69491736 6.92913236 10.23293292
O 0.42497619 1.38137034 17.72805713
O 5.01570848 6.57229686 13.77915651
O 7.43180219 12.01492845 17.77100935
O 7.61623200 8.55377902 2.54975662
O 9.18215276 6.01822860 11.17407642
O 11.61842924 11.83628452 8.91058519
O 2.63404528 9.21858407 14.40759086
O 2.69843964 13.94155343 0.11387508
O 2.44284576 5.67839132 17.31511866
O 1.96330541 16.75134078 3.05915007
O 2.41630600 8.43679248 2.01211583
O 1.30834766 10.14591537 10.71808246
O 1.29106575 6.51586928 6.16251242
O 6.17364913 3.70481117 17.90049640
O 16.72513756 2.36468502 15.38576553
O 4.57350783 13.69488447 4.70599447
O 6.92835497 11.45567702 6.72996213
O 1.38104757 15.86522250 7.71190293
O 0.04837301 12.62352279 10.86985596
O 5.96028799 15.88185056 16.60516878
O 5.57866535 0.87614224 15.77824862
O 0.85363807 14.84429966 4.80350221
O 3.78745267 15.71536531 6.08587466
O 2.14783012 0.73922187 12.53823927
O 8.21837536 13.26417587 8.58709279
O 6.98611998 6.96336795 7.72380475
O 7.01939972 3.47231277 15.45639385
O 1.92966026 3.42912860 15.81423640
O 3.11548374 5.69895284 8.07293536
O 4.17811078 3.92195875 10.16538944
O 7.92620313 5.88029139 15.01026512
O 0.75435229 3.92158271 13.50497222
O 4.07085097 7.46082354 16.13191324
O 0.19589871 4.00873490 6.58175797
O 4.65993523 7.38377626 6.15600939
O 5.04357778 6.58153747 9.48338683
O 6.65176230 9.04223191 5.36751024
O 3.90335120 6.10737628 1.58601925
O 2.89017071 5.21595616 12.37204680
O 3.77369561 10.33670644 3.54143635
O 9.07842735 11.19240886 4.73229693
O 3.21520852 9.52570673 6.46537444
O 13.40787248 11.76730494 6.47205748
O 6.53972058 6.26683731 11.52449993
O 1.13057365 13.02370271 15.04072785
O 9.00816419 6.52086814 4.61269092
O 4.79711887 10.35037892 13.16798686
O 3.61381824 11.22612954 10.89775762
O 0.47552523 15.01008404 17.10822322
O 4.13013147 11.88970235 17.01676030
O 3.95414952 16.79856587 15.02669139
O 10.46457763 13.55701589 5.23148507
O 6.23396398 15.74887027 2.01007201
O 3.11005752 13.20770791 9.13560166
O 4.36149703 11.91996971 6.67923643
O 2.08151901 17.40249021 16.76021344
O 7.06000704 13.25018613 15.46401629
O 17.45114624 1.47884147 3.30889273
O 0.85664805 1.27510711 5.62884531
O 9.31205465 6.05471718 8.51796688
O 4.39093921 0.26446949 9.31927992
O 3.58022112 2.10647806 14.26853830
O 17.24462061 6.37780374 2.55194302
O 3.93017789 0.51052618 18.11229515
O 3.28579041 3.34110940 6.72945135
O 1.82522005 2.49214306 10.62993750
O 7.54178285 17.15098121 0.00735431
O 11.45289880 4.50917985 11.21576168
O 6.89801715 7.43827558 17.05371130
O 2.02036497 0.94887029 8.41509003
O 7.46656839 9.86362425 16.20744095
O 0.45473800 8.68110103 12.82837751
O 11.89672204 4.93833590 17.51705681
O 11.10833569 14.90252450 14.10461331
O 11.44615314 5.54890491 4.81544756
O 8.17180632 17.16637452 10.70515784
O 15.51151225 16.96428946 5.75866067
O 14.67659937 9.43860023 10.91481465
O 4.43163818 9.53573187 9.09669542
O 7.13551314 11.23964790 13.79238940
O 8.15825520 14.93088805 5.31259437
O 6.37425760 11.03490218 2.08730168
O 6.91438369 13.37733311 3.40393973
O 7.92597329 15.85328406 14.52249185
O 0.89125736 14.37826724 12.55787221
O 10.31567431 14.99626474 2.66591581
O 9.39402372 13.18252552 0.48427055
O 3.75757110 16.28799007 1.06053066
O 5.77025991 14.46100433 9.40745853
O 2.78714534 15.94918139 9.81642893
O 5.42693182 1.09399699 11.71333647
O 14.27068591 8.70677062 18.07280490
O 1.80793754 3.47960260 1.00459056
O 6.39426962 15.82814410 7.26462821
O 3.00583135 18.07485186 5.11786362
O 16.93558583 2.59117180 12.52377213
O 14.70428734 16.73936584 17.32396459
O 15.79770338 5.27617158 6.62811236
O 7.13165275 1.52816290 1.10089630
O 6.60845925 17.94202942 3.42574092
O 6.52236145 6.28295728 0.99693450
O 15.00525856 5.31889120 15.22289787
O 8.34902372 1.00975295 15.68056059
O 10.75971685 1.73274734 12.60465343
O 10.26772484 8.67755308 16.35348495
O 9.12541093 10.99080984 9.80321046
O 15.38042198 7.82139142 5.30677712
O 12.71321015 5.36528647 9.09060493
O 12.62047818 8.36361795 1.85034995
O 8.70204401 5.62343894 2.10523408
O 9.36772610 3.07087403 4.03645571
O 10.85045000 0.00960599 5.72407015
O 7.03823295 4.76161699 5.43998141
O 13.71677298 9.24675255 15.17891522
O 10.42975796 6.46062738 14.62906802
O 12.55245412 10.83901161 17.30026603
O 9.83030776 1.53014316 1.80604243
O 10.63945993 14.30439697 8.13669657
O 4.98771877 3.76815527 3.76519888
O 8.14745273 0.95326975 8.98839991
O 8.54096377 13.90966884 12.79340311
O 7.88505530 0.16601569 13.16579747
O 12.49188447 15.47770671 1.26694558
O 15.34302230 9.87068913 6.83259170
O 14.39526776 2.77096555 8.11956672
O 13.55337227 1.62243600 12.06022724
O 3.79850677 12.81299950 14.61280459
O 9.59857753 16.63974054 16.72287748
O 18.12569895 17.69859190 1.55378320
O 5.83533501 3.67842132 7.64829494
O 15.09277238 0.75800754 3.93174108
O 4.25576371 2.74707865 1.22400493
O 16.17763390 17.03559673 14.28057951
O 13.77646711 14.49651003 3.73479556
O 10.76784870 4.25571186 7.48259877
O 17.72521666 17.98076966 7.07916293
O 10.44418963 8.52954013 8.38058710
O 8.92560537 3.05190186 10.98210624
O 11.31198475 3.46026325 14.60316176
O 11.86870855 1.98175628 4.52623297
O 9.17534931 17.10278953 4.08283849
O 9.86010818 8.87715246 0.95714754
O 10.57275275 8.80906446 5.55576789
O 6.97508608 9.61690739 8.68432498
O 13.46028828 5.40295265 12.71006561
O 10.06722109 11.30398555 2.27032425
O 13.42911566 11.84437251 11.26754007
O 5.36399302 1.50764208 5.09760811
O 12.05020583 10.97518932 13.34572212
O 10.29104599 8.10324420 12.19593219
O 16.65750263 7.98824731 0.47021605
O 11.26415984 14.45963880 17.22922915
O 12.16139576 15.36801036 5.94207780
O 16.30513124 8.73580577 8.99175093
O 6.20137740 0.67875845 7.38060914
O 15.52695544 13.48060998 11.84460788
O 0.35067370 12.12307434 1.74536719
O 15.56104058 15.95459816 1.90565684
O 12.52992371 12.16791013 3.22906101
O 0.10514737 13.56111119 8.10329200
O 16.23356435 15.29609117 9.34065193
O 9.96693929 15.22715147 10.53127536
O 0.21810215 16.53664046 10.84697380
O 12.06213482 17.88670734 16.61418302
O 14.29816076 16.48977773 7.90733224
O 16.15449129 13.53041084 0.85436677
O 16.50346586 0.38827570 11.26274344
O 15.97414062 14.66628097 16.26231099
O 16.74275610 4.39688192 17.25697694
O 17.69875053 6.16109506 14.32281164
O 12.38571035 7.97431993 10.28600326
O 15.27122001 6.23846010 8.95845053
O 14.72273646 16.45298739 12.04067402
O 14.92827250 13.90867386 6.98953406
O 13.26588927 6.86856536 16.21092767
O 16.23374889 3.17645619 1.53259843
O 0.65803164 9.67199519 0.45504669
O 12.91690940 7.83870741 4.67434964
O 14.01381758 2.92533602 5.30781297
O 17.28844621 6.19348531 11.14442700
O 14.97483056 7.94511550 12.94959409
O 18.06864740 6.67429169 16.96717954
O 9.39841193 5.73693726 17.71253865
O 14.89399437 11.11661283 2.14445906
O 16.71713387 1.64770401 9.03525724
O 0.69190580 10.31105222 15.80787649
O 15.72100632 12.69880632 14.56483136
O 15.16879034 4.64886713 3.35821032
O 0.35199760 8.43715668 3.91583870
O 0.59800241 3.98957810 3.28313949
O 12.81680760 12.65342348 15.22923288
O 9.44196979 10.90119638 12.45155769
O 12.03124214 16.92614309 12.27912176
O 17.45751439 10.83915802 3.75883966
O 13.55801170 0.32699744 1.60358056
O 17.65813143 11.21353928 6.48304050
O 0.62985686 8.96198863 8.05152965
O 14.83343084 3.79974479 11.08436851
O 13.18893792 0.79364188 9.16329035
O 14.20036800 0.62138153 14.65789285
H 0.60970609 0.29097921 13.64805231
H 18.07371166 1.16667164 14.58477555
H 0.80020283 3.52883632 9.93240303
H 17.63634481 4.26826282 10.22725220
H 16.19136502 13.86611085 5.67493488
H 17.26742900 14.07187474 4.51787337
H 13.69227079 2.78192551 16.66853775
H 13.96061773 2.13328677 15.31621570
H 5.77130634 15.40918303 10.85242618
H 6.03813027 15.11872987 12.32555634
H 3.62840214 15.93823715 11.99801368
H 2.24574864 15.51198143 12.55908798
H 15.56597447 9.75033643 15.40686164
H 17.16139731 9.99107182 15.34153867
H 2.44271677 5.78999604 4.41806000
H 3.76959331 6.36562031 4.85518101
H 11.92289974 2.99700484 2.32719488
H 12.73412022 4.30297908 2.49198330
H 14.45987516 3.11592760 0.59472466
H 13.54252253 1.95326142 0.72847171
H 6.66779665 3.69033515 13.29243356
H 6.38185409 4.55594572 12.04172856
H 3.23363312 13.31668522 1.56901225
H 2.19124273 12.43728109 2.46003795
H 10.51261641 2.26500944 17.80513512
H 10.37672533 2.82382568 16.32483098
H 15.33689679 1.24010991 17.79566840
H 15.68398029 17.97786257 17.28978060
H 11.45975721 1.00836603 8.66302362
H 10.81633316 2.31756135 7.99882709
H 0.80058571 6.99616226 10.31145776
H 1.83747650 6.31258828 9.46823375
H 17.63703756 1.24747517 17.56598056
H 0.54378502 0.70193384 0.17135719
H 4.29320357 6.10200567 13.28165937
H 4.63419382 6.92044480 14.61029271
H 8.19493832 12.67096009 18.03369992
H 7.08441352 11.84271053 0.44075791
H 7.05750816 7.96405070 2.06610507
H 8.46782794 8.55158551 2.00829843
H 9.76969142 6.74050332 11.49938292
H 9.71086051 5.18490131 11.15639150
H 10.79220997 11.30369582 9.15380050
H 12.08557819 11.29803199 8.23459163
H 2.07050826 8.80766759 13.67628455
H 3.01853021 8.57838434 15.00497471
H 1.77797885 13.91854449 17.97629235
H 2.99312336 14.90408331 0.08765480
H 2.64792457 5.45365685 0.08375115
H 2.25980025 4.85831465 16.82740374
H 2.43557722 17.36510351 3.66603500
H 2.60069012 16.52611926 2.30499833
H 2.93571015 9.09763538 2.45353792
H 3.06962154 7.67856504 1.83330506
H 1.05969242 9.70738127 9.88971722
H 1.18510400 9.41673176 11.35269517
H 0.95438575 7.17033639 5.53446876
H 0.69699381 5.70614316 6.15823327
H 5.31223512 3.34489373 18.09271277
H 6.24377657 4.46755003 0.36500866
H 16.22894478 1.73701402 15.88734275
H 16.92930045 3.03110386 16.07651367
H 4.24696051 14.45675458 5.20160161
H 3.88855318 13.51138932 4.04388440
H 7.18121211 10.68914819 7.32376261
H 6.00857454 11.62812265 7.00654244
H 1.86990358 16.01253131 8.54387155
H 0.87314150 15.07491172 7.82999413
H 0.42498741 11.71140927 10.80214999
H 17.35193276 12.61960491 11.15478967
H 6.61647779 15.72864959 15.93296081
H 5.16073847 16.17038619 16.07291950
H 6.55759469 0.92119588 16.07011383
H 5.31785982 0.01355553 15.43850308
H 1.27727435 15.39594259 4.12073599
H 0.88825356 15.27032658 5.65090740
H 3.41638662 16.55298161 5.68363937
H 3.10673562 15.63187476 6.78508923
H 2.60845652 1.11574197 13.37189086
H 2.35787053 18.00716663 12.42817284
H 8.83166248 13.85068010 8.05436476
H 7.82613276 12.66764594 7.91047991
H 6.53833615 7.21129482 6.89944035
H 6.25547339 6.70684328 8.31699956
H 7.57655991 2.69760125 15.42270012
H 6.78429624 3.64673324 16.37890091
H 1.45701526 2.93932770 16.55096033
H 1.29796278 3.61480410 15.02411812
H 2.85460169 6.27380834 7.33236060
H 3.99147700 6.05961415 8.42647563
H 3.78433339 4.53040902 9.52715300
H 5.02355560 3.67784047 9.74201785
H 7.70634324 4.88577735 15.05186313
H 7.28308954 6.24468287 14.40165732
H 0.13529418 3.37848354 12.89387602
H 1.54608415 4.19366298 12.99658487
H 4.88333641 7.44918381 16.62429251
H 3.58343788 6.67777175 16.42966188
H 0.42723110 3.16314822 6.12687369
H 18.13214579 3.84152568 7.47150389
H 5.34031354 7.94214101 5.75122642
H 3.98986010 8.05265164 6.36968026
H 4.68923576 7.50027072 9.52571580
H 5.63126543 6.53464848 10.28920015
H 6.97176300 8.96478798 4.43895366
H 6.60467077 9.98517691 5.57677998
H 3.81175890 5.91102918 2.55134710
H 4.88550560 6.13392106 1.36181552
H 3.43005158 4.55218759 11.91940290
H 2.85487694 5.95509509 11.75769645
H 4.62104550 9.91637265 3.32859811
H 3.72072308 11.25217703 3.15160297
H 9.09858189 11.18928279 3.79706354
H 8.22156538 11.58048516 5.10298710
H 3.63871687 10.38194527 6.23258862
H 2.48271924 9.39383602 5.88201086
H 12.91063931 11.68776557 5.67993420
H 14.02223230 11.05473971 6.53465039
H 7.50149889 6.24494409 11.45016561
H 6.27921819 6.61740526 12.36164828
H 2.08212940 12.90118020 14.85323231
H 0.87739960 12.17164873 15.41840860
H 8.28799881 5.89430213 4.94257993
H 8.80601531 7.43519887 4.89520914
H 4.12381937 9.86687581 13.69938962
H 4.34487187 10.55829747 12.29845641
H 3.53024462 12.03228225 10.41009311
H 2.83953839 10.61646809 10.79342249
H 0.80677426 15.96256797 17.08860136
H 0.87793155 14.58186875 16.32251620
H 3.64363857 12.66189365 17.33292843
H 4.96766084 11.79220950 17.55446275
H 3.13950577 16.83935482 15.59397921
H 3.62606010 16.29367326 14.27011629
H 9.63744229 14.07922708 5.30820052
H 10.25729774 12.65132171 4.98529706
H 6.42612808 14.86033033 2.38681527
H 6.96780430 15.99696931 1.38770762
H 3.81414948 13.90774596 9.27586462
H 2.28186068 13.54697168 9.48717879
H 4.43590217 12.54919404 5.94174104
H 3.80232658 12.32970273 7.35086355
H 2.63533248 17.88306758 17.39104783
H 1.36496982 17.99568798 16.55818050
H 7.03202653 12.73934573 16.32749762
H 6.12519012 13.42357303 15.28944460
H 16.51523758 1.23600831 3.62377562
H 17.83604712 0.82121533 2.67158122
H 0.24305613 0.74130440 6.12592927
H 0.49869072 1.53257539 4.77512374
H 8.46430248 6.26302844 8.04334880
H 9.00989349 5.90555236 9.41491104
H 4.66039715 0.86411342 10.10874900
H 3.56239217 0.59645210 8.93930612
H 4.43490862 1.83809265 14.69325129
H 3.08031696 2.61956394 14.92580296
H 16.99130090 6.76121879 1.70593675
H 17.54884511 7.17299206 3.06734075
H 4.09238649 1.25826171 0.49101440
H 4.50149427 0.70437133 17.35987217
H 2.73531116 3.13941545 5.92491890
H 3.07668950 4.24335908 7.01689003
H 1.91835464 1.85527940 11.36934625
H 2.70733196 2.92959820 10.46240558
H 7.41668767 18.13429252 0.05029001
H 6.90860808 16.82770561 17.53219473
H 11.16199779 3.65846890 11.53115047
H 11.99545967 4.91065935 11.97239644
H 6.91489491 8.36000985 16.64407468
H 7.52009545 6.90481887 16.44115404
H 1.86539931 1.62154173 9.13400156
H 2.19612975 1.41991004 7.62534941
H 7.85802712 10.46705829 16.85737637
H 7.36432796 10.35041035 15.37170857
H 0.05000590 9.48138604 13.13127719
H 0.02478720 7.87924023 13.13197254
H 10.94579052 5.23093340 17.55066456
H 12.04876047 4.41912476 0.11600493
H 11.66678277 14.14056831 14.28768707
H 10.20029425 14.54517280 14.19076003
H 10.61433795 6.04504730 4.60080783
H 11.46861851 4.96221518 4.07570043
H 8.85078952 16.39990665 10.51919559
H 7.38410560 16.74107963 11.13498580
H 14.83520406 16.87191744 6.46377626
H 15.73948781 16.09909497 5.32849951
H 14.87434304 8.92941941 11.80131535
H 15.46772349 9.28273389 10.34265190
H 3.81898904 9.73035653 8.33011546
H 4.13545325 10.15219385 9.81113910
H 6.25728093 10.88275005 13.51726196
H 7.19929040 12.01470672 14.45102264
H 7.42852095 15.22401286 5.88044275
H 8.25501892 15.64766838 4.68675910
H 6.95680318 10.24291755 2.20850035
H 6.69252298 11.69765057 2.71175908
H 6.00482348 13.47584160 3.93489545
H 7.55289174 13.84694315 4.01028933
H 8.06705312 15.06001606 13.95478041
H 7.64452282 16.58558446 13.94716581
H 0.93059375 13.86556766 13.37877899
H 0.71116609 13.77424187 11.82690152
H 11.25994855 15.25879439 2.34259699
H 10.36555822 14.58260688 3.58538774
H 10.13347104 13.30343664 18.12095175
H 9.47315452 13.99459823 1.02828970
H 4.62024946 15.95438597 1.37733098
H 3.87541404 17.17602581 0.66843509
H 5.80663372 15.22288369 8.76836200
H 6.63747657 14.04807032 9.29826794
H 3.53162748 16.56734777 9.85498418
H 2.11157528 16.21629933 10.45727388
H 4.66077998 1.02440013 12.29278668
H 5.76531761 2.01891639 11.87078952
H 13.81272351 9.50487798 17.74937827
H 13.68087455 8.49790854 0.63231829
H 1.28876023 2.77974586 0.52548704
H 1.36800589 3.63370954 1.87920708
H 5.44430491 15.85802501 6.90235901
H 6.47451913 16.76912064 7.36699321
H 2.27814638 0.42603693 5.37819588
H 3.82815922 0.44684481 5.19639907
H 16.83860509 1.72676607 11.99975252
H 16.74179745 2.37003994 13.41698659
H 13.82818393 17.17174671 17.17557790
H 14.82904232 15.84929107 16.95965773
H 16.59256816 4.81080248 6.42119777
H 15.63055819 6.02622275 6.01260511
H 6.80043871 2.32166518 0.60591563
H 6.42907401 1.28051935 1.70570312
H 6.19037693 17.06035783 3.10786764
H 7.55668121 17.75652908 3.53607339
H 7.28338595 5.98431855 1.49542516
H 6.74014689 6.72780793 0.13946602
H 14.69978188 4.39532524 15.28383200
H 14.21789019 5.82728437 15.51625848
H 9.07121812 1.48775961 16.17107917
H 8.66932229 0.64001367 14.84770241
H 10.90543810 2.38131438 13.31136083
H 9.92638010 2.01980284 12.15802732
H 9.42812254 9.05384466 16.03169810
H 10.44873000 7.86582895 15.80859063
H 8.78040061 11.83300181 9.46679186
H 8.49057838 10.33552212 9.44476621
H 15.83601429 7.90081569 4.50523526
H 14.44926488 7.85130484 5.11765530
H 12.27212959 5.01290908 9.91073188
H 11.99841218 5.05783964 8.38891681
H 12.84865012 8.24615431 2.82482777
H 11.68754332 8.66465578 1.72012544
H 8.90309202 6.15880990 2.86936486
H 8.99988820 4.71076585 2.31993498
H 8.72473714 3.22231200 4.77412970
H 8.92487634 2.57018804 3.28312435
H 10.63973488 0.53229378 6.49334720
H 11.41493752 0.56553465 5.13126578
H 6.36624492 4.51059774 4.77971693
H 6.69235243 4.36654323 6.25658236
H 13.11424384 9.68974347 14.54100844
H 13.29218183 8.38172312 15.29835778
H 10.58075916 6.80859643 13.73014911
H 9.48043446 6.33044989 14.62471739
H 12.80108920 11.29209116 16.48538255
H 11.95979358 10.11302853 17.10417772
H 8.98801971 1.33298568 1.37894788
H 10.11354551 0.61519473 2.00148643
H 11.16672200 14.91339177 7.54585417
H 11.20587340 13.51746314 8.31840453
H 4.35690814 4.33591827 4.15955398
H 5.21005188 3.03343490 4.36352900
H 9.07593483 0.90390110 8.59986994
H 8.16610959 0.12472907 9.57325326
H 8.98583382 14.33877451 12.02373154
H 8.26756139 13.02674148 12.46727616
H 8.30867821 18.07549847 12.39050172
H 7.00220644 0.47523346 12.85492937
H 13.21898395 14.85345736 1.48552312
H 12.17942140 15.24686239 0.34574182
H 15.50519698 9.11257836 6.19825063
H 16.16955491 10.44817167 6.78506065
H 15.24961458 2.25458936 8.33403287
H 14.33010354 3.44657182 8.77362127
H 12.57172969 1.60185136 12.07977951
H 13.75167325 1.26858036 12.94026072
H 4.03798887 12.26551759 15.41400693
H 3.95909380 12.20715292 13.82992388
H 8.87509630 16.87795668 17.28526480
H 9.08874822 16.58980714 15.86096435
H 0.62963021 17.31412499 2.23378671
H 17.31539768 17.19930841 1.63421671
H 6.37217156 2.86069701 7.71918549
H 4.95549347 3.34643403 7.36165377
H 14.77176734 1.47233210 4.51408226
H 15.16409103 18.19263258 4.51918964
H 4.75724766 3.10938973 2.02327378
H 3.25611496 3.01245571 1.26871288
H 17.03066038 17.51340897 14.45904841
H 16.16440348 16.29385898 14.99510040
H 13.31669895 14.92705902 4.50968307
H 14.64405357 14.19323885 4.06866484
H 10.14047814 4.88326951 7.90965371
H 10.88590108 4.57312459 6.56744606
H 0.25790349 17.37104812 7.19946085
H 16.96541014 17.61120695 6.58338315
H 11.15111149 8.54223499 9.05574542
H 10.08915647 7.57814353 8.42759880
H 8.01432716 3.26647228 11.22978924
H 8.71289159 2.47275038 10.22833308
H 11.05288486 4.41632822 14.72970145
H 12.13047111 3.33855654 15.13523921
H 12.43377490 2.61356288 4.94706061
H 11.00960376 2.40901918 4.52582513
H 9.69439606 16.57328936 3.49882180
H 9.80107300 17.46759869 4.67807942
H 10.06675593 8.78332527 0.02779628
H 10.08599930 9.81117718 1.16284679
H 10.13911342 9.62750737 5.26141392
H 10.52435278 8.89800416 6.55836472
H 6.03847407 9.60456014 8.99762274
H 7.01869562 8.78996945 8.18204340
H 14.03584095 5.06214795 11.99132463
H 13.84369312 5.13610026 13.57006433
H 9.82490376 12.03890140 1.71911529
H 10.85665798 11.66156736 2.70702243
H 12.97201369 11.91804895 10.43276705
H 13.95075083 10.98486244 11.19001745
H 5.73308052 1.16380107 5.96557350
H 5.87302668 0.87969143 4.51800290
H 12.52849702 11.30066307 12.52013653
H 11.11025884 10.87228908 13.06545987
H 9.92261031 9.02215260 12.27480146
H 11.16182312 8.22868157 11.67930383
H 17.18766024 7.62905593 17.92411902
H 15.81909188 8.40594872 0.15736971
H 10.63168699 15.15087780 16.94729897
H 11.66576639 14.19700217 16.45720756
H 11.80712907 16.27319703 5.94226938
H 11.38838401 14.79982709 5.55715179
H 15.89884297 9.05016508 8.13594139
H 15.95037769 7.78490640 8.93736417
H 5.48143489 0.67425580 8.05398401
H 7.13080635 0.89157409 7.78741328
H 15.53232087 14.30738579 11.36317586
H 14.73752155 12.91434285 11.55995036
H 17.78248195 12.67579291 1.52571847
H 0.17917602 11.33324676 1.27489150
H 14.96498010 15.67942020 2.59408627
H 14.91659669 16.19705638 1.21822989
H 12.81966601 13.10877230 3.53574393
H 13.35489349 11.66060727 2.90028217
H 17.98271515 12.82825295 7.49271217
H 0.01769420 13.20600787 9.00180380
H 17.03383227 15.57229294 9.82348974
H 16.56267071 14.81290841 8.58396878
H 10.78593850 15.45699475 11.03845971
H 10.33863485 14.89905027 9.67717777
H 18.09852326 17.37264768 11.18931030
H 0.05155382 15.92161819 11.56199068
H 11.83367844 0.56446190 16.97936565
H 11.18224963 17.47012001 16.51119911
H 13.91503682 17.23226168 8.40985369
H 15.00880248 16.17288225 8.48734246
H 16.03239710 14.46264206 1.26917586
H 15.96583700 13.67675823 18.16740802
H 16.38958970 0.83612777 10.35681550
H 15.79500472 18.02981581 11.48659924
H 16.88798092 14.83470743 16.59740817
H 15.96598687 13.87701819 15.63837976
H 17.43059480 5.14843906 17.36853287
H 16.06685577 4.96656416 16.81672571
H 16.81887496 5.82662559 14.45730917
H 0.10463411 5.40814434 14.05521376
H 13.29771492 8.34212612 10.41196631
H 12.43822552 7.03752179 9.99556746
H 15.62514140 5.83096697 8.13577003
H 14.33036371 6.11062685 8.90049770
H 13.74974214 16.61956150 12.01639721
H 15.14665791 16.64116383 12.89629827
H 14.52653714 13.16547517 6.54634383
H 14.14303049 14.47660275 6.85543114
H 12.58551449 6.35513350 16.74371440
H 13.82647299 7.24098067 16.89228225
H 16.76789920 2.62335270 2.14646133
H 16.89706678 3.35951106 0.80845537
H 18.16528083 8.99706433 0.55772658
H 1.46887469 9.27924021 0.69220235
H 12.64853467 6.92602330 4.75099461
H 12.16962529 8.38134228 5.11630612
H 14.25918573 3.05067007 6.25795485
H 14.27853353 3.70926540 4.92436689
H 17.28776770 6.26473897 12.12893845
H 16.36785734 6.47197883 10.87636960
H 14.15455429 7.41281681 12.88333451
H 14.72648932 8.45299762 13.73772341
H 17.98796709 6.66666586 15.98286516
H 0.78353866 6.41954172 17.15552463
H 9.36469205 6.67988085 17.45115182
H 9.03480288 5.76664278 0.45792424
H 15.22780058 11.75327664 1.53363555
H 14.63054727 10.35528517 1.64620100
H 17.27606684 1.14838606 8.35640680
H 17.23788652 2.36426902 9.39988354
H 0.63480829 10.11444697 16.76010097
H 1.49842958 10.01499834 15.44286069
H 15.98697900 11.73611297 14.60861239
H 16.03872738 13.06178332 13.72622157
H 15.39605662 3.92925794 2.81868940
H 15.88510270 5.28586285 3.12562857
H 1.17823295 8.42025679 3.44716329
H 0.04227611 9.37009685 3.79632112
H 0.15957889 3.11938630 3.33421495
H 18.13426374 4.64613357 3.02108049
H 12.63378021 11.98287142 14.48762715
H 13.70186814 12.91344107 14.87094741
H 9.45988668 10.95588513 11.48592816
H 8.56217144 10.88314894 12.87210601
H 11.86326991 17.83299225 12.63921139
H 11.79305231 16.34520475 13.06724873
H 16.46489371 10.99762132 3.65029495
H 17.81880747 11.49440832 3.08387349
H 13.27939658 17.60641249 1.54757948
H 14.10158856 0.41223920 2.43745071
H 17.96410875 11.03587446 5.58918014
H 0.06258564 10.60822668 6.97023895
H 17.90751230 8.84993625 8.36367930
H 0.81731640 8.16190698 7.58117205
H 14.16386519 3.08117656 11.24791279
H 15.62702156 3.40294929 11.50321762
H 13.49293201 1.62171469 8.66214950
H 13.35440688 0.97588471 10.08617238
H 15.02549020 0.02745402 14.67767805
H 13.45906292 0.20747520 15.21757869
